 Entering Gaussian System, Link 0=/apps/rhel6/g09-E.01/g09/g09
 Initial command:
 /apps/rhel6/g09-E.01/g09/l1.exe "/scratch/brown/ypushkar/gaussian/Gau-42260.inp" -scrdir="/scratch/brown/ypushkar/gaussian/"
 Entering Link 1 = /apps/rhel6/g09-E.01/g09/l1.exe PID=     42262.
  
 Copyright (c) 1988,1990,1992,1993,1995,1998,2003,2009,2015,
            Gaussian, Inc.  All Rights Reserved.
  
 This is part of the Gaussian(R) 09 program.  It is based on
 the Gaussian(R) 03 system (copyright 2003, Gaussian, Inc.),
 the Gaussian(R) 98 system (copyright 1998, Gaussian, Inc.),
 the Gaussian(R) 94 system (copyright 1995, Gaussian, Inc.),
 the Gaussian 92(TM) system (copyright 1992, Gaussian, Inc.),
 the Gaussian 90(TM) system (copyright 1990, Gaussian, Inc.),
 the Gaussian 88(TM) system (copyright 1988, Gaussian, Inc.),
 the Gaussian 86(TM) system (copyright 1986, Carnegie Mellon
 University), and the Gaussian 82(TM) system (copyright 1983,
 Carnegie Mellon University). Gaussian is a federally registered
 trademark of Gaussian, Inc.
  
 This software contains proprietary and confidential information,
 including trade secrets, belonging to Gaussian, Inc.
  
 This software is provided under written license and may be
 used, copied, transmitted, or stored only in accord with that
 written license.
  
 The following legend is applicable only to US Government
 contracts under FAR:
  
                    RESTRICTED RIGHTS LEGEND
  
 Use, reproduction and disclosure by the US Government is
 subject to restrictions as set forth in subparagraphs (a)
 and (c) of the Commercial Computer Software - Restricted
 Rights clause in FAR 52.227-19.
  
 Gaussian, Inc.
 340 Quinnipiac St., Bldg. 40, Wallingford CT 06492
  
  
 ---------------------------------------------------------------
 Warning -- This program may not be used in any manner that
 competes with the business of Gaussian, Inc. or will provide
 assistance to any competitor of Gaussian, Inc.  The licensee
 of this program is prohibited from giving any competitor of
 Gaussian, Inc. access to this program.  By using this program,
 the user acknowledges that Gaussian, Inc. is engaged in the
 business of creating and licensing software in the field of
 computational chemistry and represents and warrants to the
 licensee that it is not a competitor of Gaussian, Inc. and that
 it will not use this program in any manner prohibited above.
 ---------------------------------------------------------------
  

 Cite this work as:
 Gaussian 09, Revision E.01,
 M. J. Frisch, G. W. Trucks, H. B. Schlegel, G. E. Scuseria, 
 M. A. Robb, J. R. Cheeseman, G. Scalmani, V. Barone, B. Mennucci, 
 G. A. Petersson, H. Nakatsuji, M. Caricato, X. Li, H. P. Hratchian, 
 A. F. Izmaylov, J. Bloino, G. Zheng, J. L. Sonnenberg, M. Hada, 
 M. Ehara, K. Toyota, R. Fukuda, J. Hasegawa, M. Ishida, T. Nakajima, 
 Y. Honda, O. Kitao, H. Nakai, T. Vreven, J. A. Montgomery, Jr., 
 J. E. Peralta, F. Ogliaro, M. Bearpark, J. J. Heyd, E. Brothers, 
 K. N. Kudin, V. N. Staroverov, T. Keith, R. Kobayashi, J. Normand, 
 K. Raghavachari, A. Rendell, J. C. Burant, S. S. Iyengar, J. Tomasi, 
 M. Cossi, N. Rega, J. M. Millam, M. Klene, J. E. Knox, J. B. Cross, 
 V. Bakken, C. Adamo, J. Jaramillo, R. Gomperts, R. E. Stratmann, 
 O. Yazyev, A. J. Austin, R. Cammi, C. Pomelli, J. W. Ochterski, 
 R. L. Martin, K. Morokuma, V. G. Zakrzewski, G. A. Voth, 
 P. Salvador, J. J. Dannenberg, S. Dapprich, A. D. Daniels, 
 O. Farkas, J. B. Foresman, J. V. Ortiz, J. Cioslowski, 
 and D. J. Fox, Gaussian, Inc., Wallingford CT, 2013.
 
 ******************************************
 Gaussian 09:  ES64L-G09RevE.01 30-Nov-2015
                12-Dec-2020 
 ******************************************
 %NProcS=20
 Will use up to   20 processors via shared memory.
 %chk=OEC_S2_1d2prime_deprot_raman.chk
 %mem=50GB
 ----------------------------
 # freq(Raman) def2tzvp ubp86
 ----------------------------
 1/10=4,30=1,38=1/1,3;
 2/12=2,17=6,18=5,40=1/2;
 3/5=44,7=101,11=2,16=1,25=1,30=1,71=2,74=404,116=2,140=1/1,2,3;
 4//1;
 5/5=2,38=5,98=1/2;
 8/6=4,10=90,11=11/1;
 10/13=10,15=4/2;
 11/6=3,8=1,9=11,15=111,16=1/1,2,10;
 10/6=1/2;
 6/7=2,8=2,9=2,10=2,18=1,28=1/1;
 7/8=1,10=1,25=1/1,2,3,16;
 1/10=4,30=1/3;
 99//99;
 ------
 NoName
 ------
 Symbolic Z-matrix:
 Charge = -1 Multiplicity = 2
 Mn                   -1.32278  -2.91634  -1.23729 
 Mn                   -0.52062  -0.29333  -1.44754 
 Mn                   -1.03858   2.15952  -0.23899 
 Mn                    0.20997   0.64805   1.66307 
 Ca                   -3.00173  -0.27491   0.8005 
 O                    -1.01068  -1.39837  -0.07689 
 O                    -1.21851  -1.54945  -2.48456 
 O                    -1.92981   0.85198  -1.11893 
 O                    -1.39589   1.45523   1.4215 
 O                     0.4548    0.99996  -0.19138 
 H                    -4.85877  -3.93132  -3.65394 
 C                    -5.51237  -4.08024  -2.78185 
 H                    -6.50105  -4.39806  -3.15008 
 C                    -5.62968  -2.80043  -1.95609 
 C                    -4.32481  -2.24438  -1.3694 
 O                    -4.36     -1.10554  -0.85963 
 O                    -3.31137  -3.03372  -1.43557 
 C                    -0.118     0.03792   6.33349 
 C                    -1.44237  -0.02668   5.57287 
 C                    -1.33426  -0.10821   4.04763 
 O                    -2.34652  -0.45456   3.39159 
 O                    -0.18971   0.19782   3.54517 
 H                     5.51738  -3.9492    2.76514 
 C                     4.98049  -4.21995   1.84522 
 C                     5.57849  -3.37136   0.72532 
 C                     3.45548  -3.98701   2.01467 
 C                     2.99811  -2.55477   1.97753 
 N                     3.81222  -1.46175   2.25587 
 C                     1.7522   -2.02612   1.71713 
 C                     3.06817  -0.33351   2.13421 
 N                     1.81546  -0.64876   1.8226 
 N                     5.32313  -3.79515  -0.54443 
 C                     5.36921  -2.87786  -1.6909 
 H                     6.21848  -2.20199  -1.5267 
 C                     4.06234  -2.07781  -1.82684 
 C                     2.84518  -2.96624  -2.11584 
 C                     1.49254  -2.39076  -1.69532 
 O                     1.33644  -1.13709  -1.74239 
 O                     0.63469  -3.26382  -1.34965 
 C                     4.81634   5.24725  -2.23071 
 C                     4.233     3.95565  -1.74848 
 N                     5.0241    2.8414   -1.52632 
 C                     2.91173   3.65649  -1.46448 
 C                     4.18527   1.89518  -1.11953 
 N                     2.89792   2.33647  -1.0648 
 H                     1.425     6.98397   2.1064 
 C                     0.83672   6.10997   1.78618 
 H                    -0.11103   6.11251   2.34455 
 C                     1.61734   4.81768   2.02964 
 C                     0.91671   3.54102   1.56358 
 O                     0.06576   3.66338   0.62214 
 O                     1.26501   2.45731   2.13123 
 C                    -3.75572   3.08201   0.21533 
 O                    -4.13129   1.98064   0.67826 
 O                    -2.57757   3.36212  -0.22966 
 C                    -0.5876    4.19429  -4.54602 
 C                     0.22698   2.92326  -4.29465 
 C                    -0.10969   2.19888  -2.99382 
 O                    -0.45729   2.93083  -2.00278 
 O                     0.023     0.93936  -2.99346 
 O                     6.20051  -2.32832   0.97472 
 H                    -5.0885   -4.9      -2.18536 
 H                     4.72179  -4.6097   -0.63758 
 H                     2.05877   1.79887  -0.77845 
 H                    -6.07447  -1.98254  -2.54466 
 H                    -6.30505  -2.9494   -1.09647 
 H                     4.03821   6.01758  -2.33165 
 H                     5.58388   5.62324  -1.53478 
 H                     1.99619   4.23784  -1.50565 
 H                     4.46157   0.87747  -0.85763 
 H                     3.44852   0.67446   2.26529 
 H                     0.82939  -2.5297    1.43343 
 H                     4.83693  -1.49929   2.2526 
 H                     5.57362  -3.47224  -2.5953 
 C                    -4.75589   4.22663   0.11308 
 H                    -4.24896   5.19909   0.09798 
 H                    -5.31481   4.11096  -0.82864 
 H                    -5.4753    4.17455   0.94052 
 H                    -1.65954   3.9654   -4.63811 
 H                    -0.47216   4.90653  -3.71832 
 H                     0.11354   2.19704  -5.11207 
 H                     1.3031    3.16535  -4.23646 
 H                     0.48526  -0.86447   6.15684 
 H                    -2.05701  -0.8799    5.89974 
 H                     0.48012   0.9004    6.01065 
 H                    -2.04881   0.87249   5.78176 
 H                     3.1538   -4.45361   2.96872 
 H                     5.15411  -5.29352   1.66794 
 H                     2.89814  -4.52836   1.23436 
 H                     0.58976   6.22513   0.7227 
 H                     1.86787   4.68627   3.09299 
 H                     2.57912   4.84415   1.48695 
 H                     3.89971  -1.52309  -0.88997 
 H                     2.92276  -3.94726  -1.62312 
 H                     2.76457  -3.17766  -3.19617 
 H                     4.17967  -1.31833  -2.614 
 O                    -3.22345  -2.58141   1.69715 
 H                    -2.86285  -2.42645   2.58877 
 O                    -1.39257  -4.39539  -2.3657 
 H                    -2.55383  -3.18968   1.22472 
 O                    -1.42122  -3.97393   0.36581 
 H                    -4.88856   1.0837    2.18615 
 O                    -4.90039   0.16906   2.54585 
 H                    -4.19437   0.13143   3.22767 
 H                    -2.31491  -4.40138  -2.68617 
 H                    -1.65966  -4.85872   0.03105 
 H                    -0.29633   0.12211   7.41695 
 H                     5.30456   5.12325  -3.21121 
 H                    -0.26151   4.68297  -5.4771 
 

 GradGradGradGradGradGradGradGradGradGradGradGradGradGradGradGradGradGrad
 Berny optimization.
 Initialization pass.
 Trust Radius=3.00D-01 FncErr=1.00D-07 GrdErr=1.00D-07
 Number of steps in this run=      2 maximum allowed number of steps=      2.
 GradGradGradGradGradGradGradGradGradGradGradGradGradGradGradGradGradGrad

 Stoichiometry    C28H49CaMn4N5O22(1-,2)
 Framework group  C1[X(C28H49CaMn4N5O22)]
 Deg. of freedom   321
 Full point group                 C1      NOp   1
 Largest Abelian subgroup         C1      NOp   1
 Largest concise Abelian subgroup C1      NOp   1
                         Standard orientation:                         
 ---------------------------------------------------------------------
 Center     Atomic      Atomic             Coordinates (Angstroms)
 Number     Number       Type             X           Y           Z
 ---------------------------------------------------------------------
      1         25           0       -1.322784   -2.916340   -1.237287
      2         25           0       -0.520621   -0.293332   -1.447542
      3         25           0       -1.038575    2.159521   -0.238988
      4         25           0        0.209972    0.648047    1.663067
      5         20           0       -3.001732   -0.274908    0.800495
      6          8           0       -1.010680   -1.398367   -0.076894
      7          8           0       -1.218513   -1.549446   -2.484560
      8          8           0       -1.929806    0.851976   -1.118930
      9          8           0       -1.395892    1.455226    1.421502
     10          8           0        0.454796    0.999963   -0.191375
     11          1           0       -4.858765   -3.931321   -3.653935
     12          6           0       -5.512368   -4.080243   -2.781847
     13          1           0       -6.501051   -4.398057   -3.150077
     14          6           0       -5.629683   -2.800430   -1.956085
     15          6           0       -4.324814   -2.244381   -1.369398
     16          8           0       -4.360004   -1.105537   -0.859630
     17          8           0       -3.311372   -3.033716   -1.435568
     18          6           0       -0.117998    0.037920    6.333487
     19          6           0       -1.442365   -0.026675    5.572873
     20          6           0       -1.334259   -0.108208    4.047633
     21          8           0       -2.346523   -0.454557    3.391586
     22          8           0       -0.189706    0.197817    3.545166
     23          1           0        5.517377   -3.949196    2.765143
     24          6           0        4.980486   -4.219950    1.845217
     25          6           0        5.578494   -3.371357    0.725320
     26          6           0        3.455480   -3.987008    2.014672
     27          6           0        2.998106   -2.554770    1.977527
     28          7           0        3.812224   -1.461751    2.255868
     29          6           0        1.752199   -2.026120    1.717129
     30          6           0        3.068167   -0.333507    2.134212
     31          7           0        1.815456   -0.648757    1.822597
     32          7           0        5.323131   -3.795149   -0.544431
     33          6           0        5.369205   -2.877858   -1.690901
     34          1           0        6.218479   -2.201992   -1.526704
     35          6           0        4.062343   -2.077808   -1.826840
     36          6           0        2.845182   -2.966239   -2.115838
     37          6           0        1.492536   -2.390759   -1.695323
     38          8           0        1.336444   -1.137087   -1.742389
     39          8           0        0.634688   -3.263820   -1.349654
     40          6           0        4.816339    5.247252   -2.230709
     41          6           0        4.232998    3.955649   -1.748479
     42          7           0        5.024103    2.841402   -1.526322
     43          6           0        2.911730    3.656494   -1.464478
     44          6           0        4.185270    1.895182   -1.119532
     45          7           0        2.897916    2.336466   -1.064804
     46          1           0        1.424996    6.983965    2.106398
     47          6           0        0.836716    6.109974    1.786180
     48          1           0       -0.111028    6.112510    2.344551
     49          6           0        1.617340    4.817680    2.029639
     50          6           0        0.916710    3.541021    1.563576
     51          8           0        0.065763    3.663377    0.622140
     52          8           0        1.265008    2.457306    2.131231
     53          6           0       -3.755724    3.082011    0.215330
     54          8           0       -4.131293    1.980638    0.678258
     55          8           0       -2.577568    3.362118   -0.229661
     56          6           0       -0.587595    4.194286   -4.546022
     57          6           0        0.226979    2.923263   -4.294648
     58          6           0       -0.109693    2.198882   -2.993818
     59          8           0       -0.457293    2.930832   -2.002777
     60          8           0        0.022999    0.939359   -2.993464
     61          8           0        6.200510   -2.328324    0.974724
     62          1           0       -5.088501   -4.900000   -2.185356
     63          1           0        4.721785   -4.609695   -0.637578
     64          1           0        2.058773    1.798866   -0.778450
     65          1           0       -6.074472   -1.982535   -2.544662
     66          1           0       -6.305050   -2.949395   -1.096469
     67          1           0        4.038210    6.017577   -2.331651
     68          1           0        5.583884    5.623235   -1.534776
     69          1           0        1.996191    4.237843   -1.505645
     70          1           0        4.461567    0.877468   -0.857629
     71          1           0        3.448516    0.674455    2.265288
     72          1           0        0.829385   -2.529696    1.433429
     73          1           0        4.836928   -1.499287    2.252597
     74          1           0        5.573618   -3.472238   -2.595297
     75          6           0       -4.755892    4.226635    0.113083
     76          1           0       -4.248960    5.199088    0.097977
     77          1           0       -5.314810    4.110960   -0.828643
     78          1           0       -5.475301    4.174547    0.940522
     79          1           0       -1.659540    3.965403   -4.638110
     80          1           0       -0.472158    4.906529   -3.718315
     81          1           0        0.113535    2.197044   -5.112070
     82          1           0        1.303098    3.165354   -4.236460
     83          1           0        0.485261   -0.864471    6.156839
     84          1           0       -2.057008   -0.879903    5.899738
     85          1           0        0.480115    0.900403    6.010655
     86          1           0       -2.048805    0.872487    5.781762
     87          1           0        3.153804   -4.453608    2.968715
     88          1           0        5.154107   -5.293517    1.667939
     89          1           0        2.898142   -4.528355    1.234361
     90          1           0        0.589758    6.225135    0.722697
     91          1           0        1.867870    4.686269    3.092985
     92          1           0        2.579122    4.844145    1.486946
     93          1           0        3.899705   -1.523088   -0.889968
     94          1           0        2.922757   -3.947257   -1.623120
     95          1           0        2.764567   -3.177660   -3.196173
     96          1           0        4.179672   -1.318331   -2.613999
     97          8           0       -3.223450   -2.581408    1.697146
     98          1           0       -2.862845   -2.426446    2.588765
     99          8           0       -1.392569   -4.395385   -2.365699
    100          1           0       -2.553826   -3.189678    1.224718
    101          8           0       -1.421223   -3.973928    0.365808
    102          1           0       -4.888555    1.083701    2.186153
    103          8           0       -4.900393    0.169055    2.545847
    104          1           0       -4.194371    0.131428    3.227670
    105          1           0       -2.314913   -4.401384   -2.686171
    106          1           0       -1.659655   -4.858717    0.031048
    107          1           0       -0.296331    0.122111    7.416953
    108          1           0        5.304555    5.123250   -3.211212
    109          1           0       -0.261509    4.682968   -5.477102
 ---------------------------------------------------------------------
 Rotational constants (GHZ):      0.0414429      0.0375445      0.0310286
 Standard basis: def2TZVP (5D, 7F)
 There are  2521 symmetry adapted cartesian basis functions of A   symmetry.
 There are  2215 symmetry adapted basis functions of A   symmetry.
  2215 basis functions,  3682 primitive gaussians,  2521 cartesian basis functions
   275 alpha electrons      274 beta electrons
       nuclear repulsion energy     15990.8069855304 Hartrees.
 NAtoms=  109 NActive=  109 NUniq=  109 SFac= 1.00D+00 NAtFMM=   60 NAOKFM=T Big=T
 Integral buffers will be    131072 words long.
 Raffenetti 2 integral format.
 Two-electron integral symmetry is turned on.
 One-electron integrals computed using PRISM.
   1 Symmetry operations used in ECPInt.
 ECPInt:  NShTT=  383250 NPrTT= 1236453 LenC2=  262344 LenP2D=  523634.
 LDataN:  DoStor=T MaxTD1= 6 Len=  172
 NBasis=  2215 RedAO= T EigKep=  2.66D-05  NBF=  2215
 NBsUse=  2215 1.00D-06 EigRej= -1.00D+00 NBFU=  2215
 ExpMin= 2.68D-02 ExpMax= 2.77D+05 ExpMxC= 5.89D+03 IAcc=3 IRadAn=         5 AccDes= 0.00D+00
 Harris functional with IExCor=  404 and IRadAn=       5 diagonalized for initial guess.
 HarFok:  IExCor=  404 AccDes= 0.00D+00 IRadAn=         5 IDoV= 1 UseB2=F ITyADJ=14
 ICtDFT=  3500011 ScaDFX=  1.000000  1.000000  1.000000  1.000000
 FoFCou: FMM=F IPFlag=           0 FMFlag=      100000 FMFlg1=        2001
         NFxFlg=           0 DoJE=T BraDBF=F KetDBF=T FulRan=T
         wScrn=  0.000000 ICntrl=     500 IOpCl=  0 I1Cent=   200000004 NGrid=           0
         NMat0=    1 NMatS0=      1 NMatT0=    0 NMatD0=    1 NMtDS0=    0 NMtDT0=    0
 Petite list used in FoFCou.
 Initial guess <Sx>= 0.0000 <Sy>= 0.0000 <Sz>= 0.5000 <S**2>= 0.7500 S= 0.5000
 Requested convergence on RMS density matrix=1.00D-08 within 128 cycles.
 Requested convergence on MAX density matrix=1.00D-06.
 Requested convergence on             energy=1.00D-06.
 No special actions if energy rises.
 EnCoef did     4 forward-backward iterations
 EnCoef did   100 forward-backward iterations
 EnCoef did   100 forward-backward iterations
 EnCoef did   100 forward-backward iterations
 EnCoef did   100 forward-backward iterations
 EnCoef did   100 forward-backward iterations
 EnCoef did   100 forward-backward iterations
 EnCoef did    12 forward-backward iterations
 EnCoef did     9 forward-backward iterations
 EnCoef did    16 forward-backward iterations
 EnCoef did   100 forward-backward iterations
 EnCoef did   100 forward-backward iterations
 EnCoef did   100 forward-backward iterations
 EnCoef did    34 forward-backward iterations
 EnCoef did   100 forward-backward iterations
 EnCoef did    15 forward-backward iterations
 EnCoef did    10 forward-backward iterations
 EnCoef did   100 forward-backward iterations
 Restarting incremental Fock formation.
 EnCoef did   100 forward-backward iterations
 EnCoef did    34 forward-backward iterations
 EnCoef did    62 forward-backward iterations
 EnCoef did   100 forward-backward iterations
 EnCoef did   100 forward-backward iterations
 EnCoef did   100 forward-backward iterations
 EnCoef did   100 forward-backward iterations
 EnCoef did   100 forward-backward iterations
 EnCoef did   100 forward-backward iterations
 EnCoef did   100 forward-backward iterations
 EnCoef did   100 forward-backward iterations
 EnCoef did   100 forward-backward iterations
 EnCoef did   100 forward-backward iterations
 EnCoef did   100 forward-backward iterations
 EnCoef did   100 forward-backward iterations
 EnCoef did   100 forward-backward iterations
 EnCoef did   100 forward-backward iterations
 EnCoef did    18 forward-backward iterations
 EnCoef did     3 forward-backward iterations
 Restarting incremental Fock formation.
 EnCoef did     4 forward-backward iterations
 EnCoef did     1 forward-backward iterations
 EnCoef did     4 forward-backward iterations
 SCF Done:  E(UB-P86) =  -8309.94965298     A.U. after   57 cycles
            NFock= 57  Conv=0.32D-08     -V/T= 2.0028
 <Sx>= 0.0000 <Sy>= 0.0000 <Sz>= 0.5000 <S**2>= 6.5754 S= 2.1126
 <L.S>= 0.000000000000E+00
 Annihilation of the first spin contaminant:
 S**2 before annihilation     6.5754,   after    20.6249
 Range of M.O.s used for correlation:     1  2215
 NBasis=  2215 NAE=   275 NBE=   274 NFC=     0 NFV=     0
 NROrb=   2215 NOA=   275 NOB=   274 NVA=  1940 NVB=  1941

 **** Warning!!: The largest alpha MO coefficient is  0.29983953D+02


 **** Warning!!: The smallest alpha delta epsilon is  0.49577256D-01


 **** Warning!!: The largest beta MO coefficient is  0.29987947D+02


 **** Warning!!: The smallest beta delta epsilon is  0.61220494D-01

          Differentiating once with respect to electric field.
                with respect to dipole field.
          Electric field/nuclear overlap derivatives assumed to be zero.
          There are     3 degrees of freedom in the 1st order CPHF.  IDoFFX=0 NUNeed=     3.
      3 vectors produced by pass  0 Test12= 3.55D-11 3.33D-08 XBig12= 3.37D+03 9.33D+00.
 AX will form     3 AO Fock derivatives at one time.
      3 vectors produced by pass  1 Test12= 3.55D-11 3.33D-08 XBig12= 1.24D+04 2.38D+01.
      3 vectors produced by pass  2 Test12= 3.55D-11 3.33D-08 XBig12= 6.77D+04 4.53D+01.
      3 vectors produced by pass  3 Test12= 3.55D-11 3.33D-08 XBig12= 2.01D+05 7.85D+01.
      3 vectors produced by pass  4 Test12= 3.55D-11 3.33D-08 XBig12= 5.84D+05 8.38D+01.
      3 vectors produced by pass  5 Test12= 3.55D-11 3.33D-08 XBig12= 1.53D+06 1.34D+02.
      3 vectors produced by pass  6 Test12= 3.55D-11 3.33D-08 XBig12= 2.60D+06 2.06D+02.
      3 vectors produced by pass  7 Test12= 3.55D-11 3.33D-08 XBig12= 3.18D+06 1.42D+02.
      3 vectors produced by pass  8 Test12= 3.55D-11 3.33D-08 XBig12= 3.25D+06 2.09D+02.
      3 vectors produced by pass  9 Test12= 3.55D-11 3.33D-08 XBig12= 3.47D+06 2.10D+02.
      3 vectors produced by pass 10 Test12= 3.55D-11 3.33D-08 XBig12= 2.97D+06 2.42D+02.
      3 vectors produced by pass 11 Test12= 3.55D-11 3.33D-08 XBig12= 2.71D+06 1.49D+02.
      3 vectors produced by pass 12 Test12= 3.55D-11 3.33D-08 XBig12= 1.96D+06 2.04D+02.
      3 vectors produced by pass 13 Test12= 3.55D-11 3.33D-08 XBig12= 2.37D+06 1.63D+02.
      3 vectors produced by pass 14 Test12= 3.55D-11 3.33D-08 XBig12= 1.77D+06 1.50D+02.
      3 vectors produced by pass 15 Test12= 3.55D-11 3.33D-08 XBig12= 1.11D+06 1.46D+02.
      3 vectors produced by pass 16 Test12= 3.55D-11 3.33D-08 XBig12= 6.28D+05 7.97D+01.
      3 vectors produced by pass 17 Test12= 3.55D-11 3.33D-08 XBig12= 5.38D+05 8.74D+01.
      3 vectors produced by pass 18 Test12= 3.55D-11 3.33D-08 XBig12= 3.43D+05 1.08D+02.
      3 vectors produced by pass 19 Test12= 3.55D-11 3.33D-08 XBig12= 2.32D+05 8.43D+01.
      3 vectors produced by pass 20 Test12= 3.55D-11 3.33D-08 XBig12= 1.23D+05 8.58D+01.
      3 vectors produced by pass 21 Test12= 3.55D-11 3.33D-08 XBig12= 8.21D+04 4.66D+01.
      3 vectors produced by pass 22 Test12= 3.55D-11 3.33D-08 XBig12= 3.78D+04 2.92D+01.
      3 vectors produced by pass 23 Test12= 3.55D-11 3.33D-08 XBig12= 2.27D+04 1.51D+01.
      3 vectors produced by pass 24 Test12= 3.55D-11 3.33D-08 XBig12= 1.18D+04 1.05D+01.
      3 vectors produced by pass 25 Test12= 3.55D-11 3.33D-08 XBig12= 5.50D+03 5.74D+00.
      3 vectors produced by pass 26 Test12= 3.55D-11 3.33D-08 XBig12= 2.40D+03 3.98D+00.
      3 vectors produced by pass 27 Test12= 3.55D-11 3.33D-08 XBig12= 1.06D+03 2.00D+00.
      3 vectors produced by pass 28 Test12= 3.55D-11 3.33D-08 XBig12= 5.96D+02 2.07D+00.
      3 vectors produced by pass 29 Test12= 3.55D-11 3.33D-08 XBig12= 3.51D+02 1.27D+00.
      3 vectors produced by pass 30 Test12= 3.55D-11 3.33D-08 XBig12= 1.45D+02 1.03D+00.
      3 vectors produced by pass 31 Test12= 3.55D-11 3.33D-08 XBig12= 4.07D+01 3.40D-01.
      3 vectors produced by pass 32 Test12= 3.55D-11 3.33D-08 XBig12= 9.03D+00 2.81D-01.
      3 vectors produced by pass 33 Test12= 3.55D-11 3.33D-08 XBig12= 1.94D+00 9.56D-02.
      3 vectors produced by pass 34 Test12= 3.55D-11 3.33D-08 XBig12= 5.70D-01 4.08D-02.
      3 vectors produced by pass 35 Test12= 3.55D-11 3.33D-08 XBig12= 1.59D-01 2.33D-02.
      3 vectors produced by pass 36 Test12= 3.55D-11 3.33D-08 XBig12= 3.10D-02 1.17D-02.
      3 vectors produced by pass 37 Test12= 3.55D-11 3.33D-08 XBig12= 4.98D-03 4.54D-03.
      3 vectors produced by pass 38 Test12= 3.55D-11 3.33D-08 XBig12= 9.72D-04 2.31D-03.
      3 vectors produced by pass 39 Test12= 3.55D-11 3.33D-08 XBig12= 3.72D-04 1.51D-03.
      3 vectors produced by pass 40 Test12= 3.55D-11 3.33D-08 XBig12= 7.64D-05 5.94D-04.
      3 vectors produced by pass 41 Test12= 3.55D-11 3.33D-08 XBig12= 1.08D-05 1.87D-04.
      3 vectors produced by pass 42 Test12= 3.55D-11 3.33D-08 XBig12= 2.63D-06 8.02D-05.
      3 vectors produced by pass 43 Test12= 3.55D-11 3.33D-08 XBig12= 9.15D-07 6.16D-05.
      3 vectors produced by pass 44 Test12= 3.55D-11 3.33D-08 XBig12= 1.46D-07 1.91D-05.
      3 vectors produced by pass 45 Test12= 3.55D-11 3.33D-08 XBig12= 1.86D-08 1.07D-05.
      3 vectors produced by pass 46 Test12= 3.55D-11 3.33D-08 XBig12= 2.50D-09 4.05D-06.
      3 vectors produced by pass 47 Test12= 3.55D-11 3.33D-08 XBig12= 3.01D-10 9.05D-07.
      3 vectors produced by pass 48 Test12= 3.55D-11 3.33D-08 XBig12= 4.65D-11 4.74D-07.
      3 vectors produced by pass 49 Test12= 3.55D-11 3.33D-08 XBig12= 1.22D-11 3.05D-07.
      2 vectors produced by pass 50 Test12= 3.55D-11 3.33D-08 XBig12= 3.70D-12 1.49D-07.
      1 vectors produced by pass 51 Test12= 3.55D-11 3.33D-08 XBig12= 7.28D-13 6.44D-08.
 InvSVY:  IOpt=1 It=  1 EMax= 2.13D-14
 Solved reduced A of dimension   153 with     3 vectors.
 End of Minotr F.D. properties file   721 does not exist.
 End of Minotr F.D. properties file   722 does not exist.
 End of Minotr F.D. properties file   788 does not exist.
 PrsmSu:  requested number of processors reduced to:   6 ShMem   1 Linda.
   1 Symmetry operations used in ECPInt.
 ECPInt:  NShTT=  383250 NPrTT= 1236453 LenC2=  262344 LenP2D=  523634.
 LDataN:  DoStor=T MaxTD1= 7 Len=  274
 Number of processors reduced to   2 by ecpmxn.
 Symmetrizing basis deriv contribution to polar:
 IMax=3 JMax=2 DiffMx= 0.00D+00
 G2DrvN: will do    14 centers at a time, making    8 passes.
 PxScal for G2LodP:  IOpCl= 1 ISclPx=1 IMOff=     1 NMtTot=     4 NTT= 2454220 ScalPx= 4.98D+00
 Calling FoFCou, ICntrl=  3507 FMM=T I1Cent=   0 AccDes= 0.00D+00.
 PxScal for G2LodP:  IOpCl= 1 ISclPx=1 IMOff=     1 NMtTot=     4 NTT= 2454220 ScalPx= 4.98D+00
 Calling FoFCou, ICntrl=  3507 FMM=T I1Cent=   0 AccDes= 0.00D+00.
 PxScal for G2LodP:  IOpCl= 1 ISclPx=1 IMOff=     1 NMtTot=     4 NTT= 2454220 ScalPx= 4.98D+00
 Calling FoFCou, ICntrl=  3507 FMM=T I1Cent=   0 AccDes= 0.00D+00.
 PxScal for G2LodP:  IOpCl= 1 ISclPx=1 IMOff=     1 NMtTot=     4 NTT= 2454220 ScalPx= 4.98D+00
 Calling FoFCou, ICntrl=  3507 FMM=T I1Cent=   0 AccDes= 0.00D+00.
 PxScal for G2LodP:  IOpCl= 1 ISclPx=1 IMOff=     1 NMtTot=     4 NTT= 2454220 ScalPx= 4.98D+00
 Calling FoFCou, ICntrl=  3507 FMM=T I1Cent=   0 AccDes= 0.00D+00.
 PxScal for G2LodP:  IOpCl= 1 ISclPx=1 IMOff=     1 NMtTot=     4 NTT= 2454220 ScalPx= 4.98D+00
 Calling FoFCou, ICntrl=  3507 FMM=T I1Cent=   0 AccDes= 0.00D+00.
 PxScal for G2LodP:  IOpCl= 1 ISclPx=1 IMOff=     1 NMtTot=     4 NTT= 2454220 ScalPx= 4.98D+00
 Calling FoFCou, ICntrl=  3507 FMM=T I1Cent=   0 AccDes= 0.00D+00.
 PxScal for G2LodP:  IOpCl= 1 ISclPx=1 IMOff=     1 NMtTot=     4 NTT= 2454220 ScalPx= 4.98D+00
 Calling FoFCou, ICntrl=  3507 FMM=T I1Cent=   0 AccDes= 0.00D+00.
 End of G2Drv F.D. properties file   721 does not exist.
 End of G2Drv F.D. properties file   722 does not exist.
 End of G2Drv F.D. properties file   788 does not exist.
          IDoAtm=11111111111111111111111111111111111111111111111111
          IDoAtm=11111111111111111111111111111111111111111111111111
          IDoAtm=111111111
          Differentiating once with respect to electric field.
                with respect to dipole field.
          Differentiating once with respect to nuclear coordinates.
 CalDSu exits because no D1Ps are significant.
          There are   330 degrees of freedom in the 1st order CPHF.  IDoFFX=5 NUNeed=   330.
 Will reuse    3 saved solutions.
    327 vectors produced by pass  0 Test12= 1.07D-12 1.00D-09 XBig12= 1.04D+00 1.95D-01.
 AX will form    48 AO Fock derivatives at one time.
    327 vectors produced by pass  1 Test12= 1.07D-12 1.00D-09 XBig12= 2.63D+00 3.85D-01.
    327 vectors produced by pass  2 Test12= 1.07D-12 1.00D-09 XBig12= 2.87D-02 1.71D-02.
    324 vectors produced by pass  3 Test12= 1.07D-12 1.00D-09 XBig12= 8.04D-04 1.95D-03.
    324 vectors produced by pass  4 Test12= 1.07D-12 1.00D-09 XBig12= 4.69D-06 1.28D-04.
    315 vectors produced by pass  5 Test12= 1.07D-12 1.00D-09 XBig12= 1.74D-08 6.52D-06.
    199 vectors produced by pass  6 Test12= 1.07D-12 1.00D-09 XBig12= 5.16D-11 2.54D-07.
     62 vectors produced by pass  7 Test12= 1.07D-12 1.00D-09 XBig12= 2.40D-13 1.33D-08.
     27 vectors produced by pass  8 Test12= 1.07D-12 1.00D-09 XBig12= 3.53D-14 3.07D-09.
     20 vectors produced by pass  9 Test12= 1.07D-12 1.00D-09 XBig12= 3.03D-14 2.58D-09.
     10 vectors produced by pass 10 Test12= 1.07D-12 1.00D-09 XBig12= 1.54D-14 2.02D-09.
     10 vectors produced by pass 11 Test12= 1.07D-12 1.00D-09 XBig12= 1.73D-14 2.13D-09.
     10 vectors produced by pass 12 Test12= 1.07D-12 1.00D-09 XBig12= 1.71D-14 2.23D-09.
      5 vectors produced by pass 13 Test12= 1.07D-12 1.00D-09 XBig12= 7.90D-15 1.68D-09.
      5 vectors produced by pass 14 Test12= 1.07D-12 1.00D-09 XBig12= 8.13D-15 1.44D-09.
      5 vectors produced by pass 15 Test12= 1.07D-12 1.00D-09 XBig12= 1.48D-14 2.14D-09.
      5 vectors produced by pass 16 Test12= 1.07D-12 1.00D-09 XBig12= 2.42D-14 3.23D-09.
      5 vectors produced by pass 17 Test12= 1.07D-12 1.00D-09 XBig12= 1.03D-14 1.85D-09.
      5 vectors produced by pass 18 Test12= 1.07D-12 1.00D-09 XBig12= 1.75D-14 1.95D-09.
      5 vectors produced by pass 19 Test12= 1.07D-12 1.00D-09 XBig12= 2.33D-14 2.67D-09.
      5 vectors produced by pass 20 Test12= 1.07D-12 1.00D-09 XBig12= 1.53D-14 2.15D-09.
      5 vectors produced by pass 21 Test12= 1.07D-12 1.00D-09 XBig12= 2.79D-14 3.39D-09.
      5 vectors produced by pass 22 Test12= 1.07D-12 1.00D-09 XBig12= 2.22D-14 2.82D-09.
      5 vectors produced by pass 23 Test12= 1.07D-12 1.00D-09 XBig12= 1.72D-14 2.21D-09.
      5 vectors produced by pass 24 Test12= 1.07D-12 1.00D-09 XBig12= 1.14D-14 1.74D-09.
      5 vectors produced by pass 25 Test12= 1.07D-12 1.00D-09 XBig12= 9.73D-15 1.75D-09.
      4 vectors produced by pass 26 Test12= 1.07D-12 1.00D-09 XBig12= 9.31D-15 1.58D-09.
      4 vectors produced by pass 27 Test12= 1.07D-12 1.00D-09 XBig12= 1.16D-14 1.63D-09.
      4 vectors produced by pass 28 Test12= 1.07D-12 1.00D-09 XBig12= 1.04D-14 1.90D-09.
      1 vectors produced by pass 29 Test12= 1.07D-12 1.00D-09 XBig12= 5.71D-15 1.28D-09.
 InvSVY:  IOpt=1 It=  1 EMax= 1.78D-15
 Solved reduced A of dimension  2360 with   330 vectors.
 Isotropic polarizability for W=    0.000000      669.40 Bohr**3.
 End of Minotr F.D. properties file   721 does not exist.
 End of Minotr F.D. properties file   722 does not exist.
 End of Minotr F.D. properties file   788 does not exist.
 Hyperfine terms turned off by default for NAtoms > 100.

 **********************************************************************

            Population analysis using the SCF density.

 **********************************************************************

 Orbital symmetries:
 Alpha Orbitals:
       Occupied  (A) (A) (A) (A) (A) (A) (A) (A) (A) (A) (A) (A)
                 (A) (A) (A) (A) (A) (A) (A) (A) (A) (A) (A) (A)
                 (A) (A) (A) (A) (A) (A) (A) (A) (A) (A) (A) (A)
                 (A) (A) (A) (A) (A) (A) (A) (A) (A) (A) (A) (A)
                 (A) (A) (A) (A) (A) (A) (A) (A) (A) (A) (A) (A)
                 (A) (A) (A) (A) (A) (A) (A) (A) (A) (A) (A) (A)
                 (A) (A) (A) (A) (A) (A) (A) (A) (A) (A) (A) (A)
                 (A) (A) (A) (A) (A) (A) (A) (A) (A) (A) (A) (A)
                 (A) (A) (A) (A) (A) (A) (A) (A) (A) (A) (A) (A)
                 (A) (A) (A) (A) (A) (A) (A) (A) (A) (A) (A) (A)
                 (A) (A) (A) (A) (A) (A) (A) (A) (A) (A) (A) (A)
                 (A) (A) (A) (A) (A) (A) (A) (A) (A) (A) (A) (A)
                 (A) (A) (A) (A) (A) (A) (A) (A) (A) (A) (A) (A)
                 (A) (A) (A) (A) (A) (A) (A) (A) (A) (A) (A) (A)
                 (A) (A) (A) (A) (A) (A) (A) (A) (A) (A) (A) (A)
                 (A) (A) (A) (A) (A) (A) (A) (A) (A) (A) (A) (A)
                 (A) (A) (A) (A) (A) (A) (A) (A) (A) (A) (A) (A)
                 (A) (A) (A) (A) (A) (A) (A) (A) (A) (A) (A) (A)
                 (A) (A) (A) (A) (A) (A) (A) (A) (A) (A) (A) (A)
                 (A) (A) (A) (A) (A) (A) (A) (A) (A) (A) (A) (A)
                 (A) (A) (A) (A) (A) (A) (A) (A) (A) (A) (A) (A)
                 (A) (A) (A) (A) (A) (A) (A) (A) (A) (A) (A) (A)
                 (A) (A) (A) (A) (A) (A) (A) (A) (A) (A) (A)
       Virtual   (A) (A) (A) (A) (A) (A) (A) (A) (A) (A) (A) (A)
                 (A) (A) (A) (A) (A) (A) (A) (A) (A) (A) (A) (A)
                 (A) (A) (A) (A) (A) (A) (A) (A) (A) (A) (A) (A)
                 (A) (A) (A) (A) (A) (A) (A) (A) (A) (A) (A) (A)
                 (A) (A) (A) (A) (A) (A) (A) (A) (A) (A) (A) (A)
                 (A) (A) (A) (A) (A) (A) (A) (A) (A) (A) (A) (A)
                 (A) (A) (A) (A) (A) (A) (A) (A) (A) (A) (A) (A)
                 (A) (A) (A) (A) (A) (A) (A) (A) (A) (A) (A) (A)
                 (A) (A) (A) (A) (A) (A) (A) (A) (A) (A) (A) (A)
                 (A) (A) (A) (A) (A) (A) (A) (A) (A) (A) (A) (A)
                 (A) (A) (A) (A) (A) (A) (A) (A) (A) (A) (A) (A)
                 (A) (A) (A) (A) (A) (A) (A) (A) (A) (A) (A) (A)
                 (A) (A) (A) (A) (A) (A) (A) (A) (A) (A) (A) (A)
                 (A) (A) (A) (A) (A) (A) (A) (A) (A) (A) (A) (A)
                 (A) (A) (A) (A) (A) (A) (A) (A) (A) (A) (A) (A)
                 (A) (A) (A) (A) (A) (A) (A) (A) (A) (A) (A) (A)
                 (A) (A) (A) (A) (A) (A) (A) (A) (A) (A) (A) (A)
                 (A) (A) (A) (A) (A) (A) (A) (A) (A) (A) (A) (A)
                 (A) (A) (A) (A) (A) (A) (A) (A) (A) (A) (A) (A)
                 (A) (A) (A) (A) (A) (A) (A) (A) (A) (A) (A) (A)
                 (A) (A) (A) (A) (A) (A) (A) (A) (A) (A) (A) (A)
                 (A) (A) (A) (A) (A) (A) (A) (A) (A) (A) (A) (A)
                 (A) (A) (A) (A) (A) (A) (A) (A) (A) (A) (A) (A)
                 (A) (A) (A) (A) (A) (A) (A) (A) (A) (A) (A) (A)
                 (A) (A) (A) (A) (A) (A) (A) (A) (A) (A) (A) (A)
                 (A) (A) (A) (A) (A) (A) (A) (A) (A) (A) (A) (A)
                 (A) (A) (A) (A) (A) (A) (A) (A) (A) (A) (A) (A)
                 (A) (A) (A) (A) (A) (A) (A) (A) (A) (A) (A) (A)
                 (A) (A) (A) (A) (A) (A) (A) (A) (A) (A) (A) (A)
                 (A) (A) (A) (A) (A) (A) (A) (A) (A) (A) (A) (A)
                 (A) (A) (A) (A) (A) (A) (A) (A) (A) (A) (A) (A)
                 (A) (A) (A) (A) (A) (A) (A) (A) (A) (A) (A) (A)
                 (A) (A) (A) (A) (A) (A) (A) (A) (A) (A) (A) (A)
                 (A) (A) (A) (A) (A) (A) (A) (A) (A) (A) (A) (A)
                 (A) (A) (A) (A) (A) (A) (A) (A) (A) (A) (A) (A)
                 (A) (A) (A) (A) (A) (A) (A) (A) (A) (A) (A) (A)
                 (A) (A) (A) (A) (A) (A) (A) (A) (A) (A) (A) (A)
                 (A) (A) (A) (A) (A) (A) (A) (A) (A) (A) (A) (A)
                 (A) (A) (A) (A) (A) (A) (A) (A) (A) (A) (A) (A)
                 (A) (A) (A) (A) (A) (A) (A) (A) (A) (A) (A) (A)
                 (A) (A) (A) (A) (A) (A) (A) (A) (A) (A) (A) (A)
                 (A) (A) (A) (A) (A) (A) (A) (A) (A) (A) (A) (A)
                 (A) (A) (A) (A) (A) (A) (A) (A) (A) (A) (A) (A)
                 (A) (A) (A) (A) (A) (A) (A) (A) (A) (A) (A) (A)
                 (A) (A) (A) (A) (A) (A) (A) (A) (A) (A) (A) (A)
                 (A) (A) (A) (A) (A) (A) (A) (A) (A) (A) (A) (A)
                 (A) (A) (A) (A) (A) (A) (A) (A) (A) (A) (A) (A)
                 (A) (A) (A) (A) (A) (A) (A) (A) (A) (A) (A) (A)
                 (A) (A) (A) (A) (A) (A) (A) (A) (A) (A) (A) (A)
                 (A) (A) (A) (A) (A) (A) (A) (A) (A) (A) (A) (A)
                 (A) (A) (A) (A) (A) (A) (A) (A) (A) (A) (A) (A)
                 (A) (A) (A) (A) (A) (A) (A) (A) (A) (A) (A) (A)
                 (A) (A) (A) (A) (A) (A) (A) (A) (A) (A) (A) (A)
                 (A) (A) (A) (A) (A) (A) (A) (A) (A) (A) (A) (A)
                 (A) (A) (A) (A) (A) (A) (A) (A) (A) (A) (A) (A)
                 (A) (A) (A) (A) (A) (A) (A) (A) (A) (A) (A) (A)
                 (A) (A) (A) (A) (A) (A) (A) (A) (A) (A) (A) (A)
                 (A) (A) (A) (A) (A) (A) (A) (A) (A) (A) (A) (A)
                 (A) (A) (A) (A) (A) (A) (A) (A) (A) (A) (A) (A)
                 (A) (A) (A) (A) (A) (A) (A) (A) (A) (A) (A) (A)
                 (A) (A) (A) (A) (A) (A) (A) (A) (A) (A) (A) (A)
                 (A) (A) (A) (A) (A) (A) (A) (A) (A) (A) (A) (A)
                 (A) (A) (A) (A) (A) (A) (A) (A) (A) (A) (A) (A)
                 (A) (A) (A) (A) (A) (A) (A) (A) (A) (A) (A) (A)
                 (A) (A) (A) (A) (A) (A) (A) (A) (A) (A) (A) (A)
                 (A) (A) (A) (A) (A) (A) (A) (A) (A) (A) (A) (A)
                 (A) (A) (A) (A) (A) (A) (A) (A) (A) (A) (A) (A)
                 (A) (A) (A) (A) (A) (A) (A) (A) (A) (A) (A) (A)
                 (A) (A) (A) (A) (A) (A) (A) (A) (A) (A) (A) (A)
                 (A) (A) (A) (A) (A) (A) (A) (A) (A) (A) (A) (A)
                 (A) (A) (A) (A) (A) (A) (A) (A) (A) (A) (A) (A)
                 (A) (A) (A) (A) (A) (A) (A) (A) (A) (A) (A) (A)
                 (A) (A) (A) (A) (A) (A) (A) (A) (A) (A) (A) (A)
                 (A) (A) (A) (A) (A) (A) (A) (A) (A) (A) (A) (A)
                 (A) (A) (A) (A) (A) (A) (A) (A) (A) (A) (A) (A)
                 (A) (A) (A) (A) (A) (A) (A) (A) (A) (A) (A) (A)
                 (A) (A) (A) (A) (A) (A) (A) (A) (A) (A) (A) (A)
                 (A) (A) (A) (A) (A) (A) (A) (A) (A) (A) (A) (A)
                 (A) (A) (A) (A) (A) (A) (A) (A) (A) (A) (A) (A)
                 (A) (A) (A) (A) (A) (A) (A) (A) (A) (A) (A) (A)
                 (A) (A) (A) (A) (A) (A) (A) (A) (A) (A) (A) (A)
                 (A) (A) (A) (A) (A) (A) (A) (A) (A) (A) (A) (A)
                 (A) (A) (A) (A) (A) (A) (A) (A) (A) (A) (A) (A)
                 (A) (A) (A) (A) (A) (A) (A) (A) (A) (A) (A) (A)
                 (A) (A) (A) (A) (A) (A) (A) (A) (A) (A) (A) (A)
                 (A) (A) (A) (A) (A) (A) (A) (A) (A) (A) (A) (A)
                 (A) (A) (A) (A) (A) (A) (A) (A) (A) (A) (A) (A)
                 (A) (A) (A) (A) (A) (A) (A) (A) (A) (A) (A) (A)
                 (A) (A) (A) (A) (A) (A) (A) (A) (A) (A) (A) (A)
                 (A) (A) (A) (A) (A) (A) (A) (A) (A) (A) (A) (A)
                 (A) (A) (A) (A) (A) (A) (A) (A) (A) (A) (A) (A)
                 (A) (A) (A) (A) (A) (A) (A) (A) (A) (A) (A) (A)
                 (A) (A) (A) (A) (A) (A) (A) (A) (A) (A) (A) (A)
                 (A) (A) (A) (A) (A) (A) (A) (A) (A) (A) (A) (A)
                 (A) (A) (A) (A) (A) (A) (A) (A) (A) (A) (A) (A)
                 (A) (A) (A) (A) (A) (A) (A) (A) (A) (A) (A) (A)
                 (A) (A) (A) (A) (A) (A) (A) (A) (A) (A) (A) (A)
                 (A) (A) (A) (A) (A) (A) (A) (A) (A) (A) (A) (A)
                 (A) (A) (A) (A) (A) (A) (A) (A) (A) (A) (A) (A)
                 (A) (A) (A) (A) (A) (A) (A) (A) (A) (A) (A) (A)
                 (A) (A) (A) (A) (A) (A) (A) (A) (A) (A) (A) (A)
                 (A) (A) (A) (A) (A) (A) (A) (A) (A) (A) (A) (A)
                 (A) (A) (A) (A) (A) (A) (A) (A) (A) (A) (A) (A)
                 (A) (A) (A) (A) (A) (A) (A) (A) (A) (A) (A) (A)
                 (A) (A) (A) (A) (A) (A) (A) (A) (A) (A) (A) (A)
                 (A) (A) (A) (A) (A) (A) (A) (A) (A) (A) (A) (A)
                 (A) (A) (A) (A) (A) (A) (A) (A) (A) (A) (A) (A)
                 (A) (A) (A) (A) (A) (A) (A) (A) (A) (A) (A) (A)
                 (A) (A) (A) (A) (A) (A) (A) (A) (A) (A) (A) (A)
                 (A) (A) (A) (A) (A) (A) (A) (A) (A) (A) (A) (A)
                 (A) (A) (A) (A) (A) (A) (A) (A) (A) (A) (A) (A)
                 (A) (A) (A) (A) (A) (A) (A) (A) (A) (A) (A) (A)
                 (A) (A) (A) (A) (A) (A) (A) (A) (A) (A) (A) (A)
                 (A) (A) (A) (A) (A) (A) (A) (A) (A) (A) (A) (A)
                 (A) (A) (A) (A) (A) (A) (A) (A) (A) (A) (A) (A)
                 (A) (A) (A) (A) (A) (A) (A) (A) (A) (A) (A) (A)
                 (A) (A) (A) (A) (A) (A) (A) (A) (A) (A) (A) (A)
                 (A) (A) (A) (A) (A) (A) (A) (A) (A) (A) (A) (A)
                 (A) (A) (A) (A) (A) (A) (A) (A) (A) (A) (A) (A)
                 (A) (A) (A) (A) (A) (A) (A) (A) (A) (A) (A) (A)
                 (A) (A) (A) (A) (A) (A) (A) (A) (A) (A) (A) (A)
                 (A) (A) (A) (A) (A) (A) (A) (A) (A) (A) (A) (A)
                 (A) (A) (A) (A) (A) (A) (A) (A) (A) (A) (A) (A)
                 (A) (A) (A) (A) (A) (A) (A) (A) (A) (A) (A) (A)
                 (A) (A) (A) (A) (A) (A) (A) (A) (A) (A) (A) (A)
                 (A) (A) (A) (A) (A) (A) (A) (A) (A) (A) (A) (A)
                 (A) (A) (A) (A) (A) (A) (A) (A) (A) (A) (A) (A)
                 (A) (A) (A) (A) (A) (A) (A) (A) (A) (A) (A) (A)
                 (A) (A) (A) (A) (A) (A) (A) (A) (A) (A) (A) (A)
                 (A) (A) (A) (A) (A) (A) (A) (A) (A) (A) (A) (A)
                 (A) (A) (A) (A) (A) (A) (A) (A) (A) (A) (A) (A)
                 (A) (A) (A) (A) (A) (A) (A) (A) (A) (A) (A) (A)
                 (A) (A) (A) (A) (A) (A) (A) (A) (A) (A) (A) (A)
                 (A) (A) (A) (A) (A) (A) (A) (A) (A) (A) (A) (A)
                 (A) (A) (A) (A) (A) (A) (A) (A) (A) (A) (A) (A)
                 (A) (A) (A) (A) (A) (A) (A) (A) (A) (A) (A) (A)
                 (A) (A) (A) (A) (A) (A) (A) (A) (A) (A) (A) (A)
                 (A) (A) (A) (A) (A) (A) (A) (A) (A) (A) (A) (A)
                 (A) (A) (A) (A) (A) (A) (A) (A) (A) (A) (A) (A)
                 (A) (A) (A) (A) (A) (A) (A) (A) (A) (A) (A) (A)
                 (A) (A) (A) (A) (A) (A) (A) (A) (A) (A) (A) (A)
                 (A) (A) (A) (A) (A) (A) (A) (A) (A) (A) (A) (A)
                 (A) (A) (A) (A) (A) (A) (A) (A) (A) (A) (A) (A)
                 (A) (A) (A) (A) (A) (A) (A) (A) (A) (A) (A) (A)
                 (A) (A) (A) (A) (A) (A) (A) (A) (A) (A) (A) (A)
                 (A) (A) (A) (A) (A) (A) (A) (A) (A) (A) (A) (A)
                 (A) (A) (A) (A) (A) (A) (A) (A) (A) (A) (A) (A)
                 (A) (A) (A) (A) (A) (A) (A) (A) (A) (A) (A) (A)
                 (A) (A) (A) (A) (A) (A) (A) (A) (A) (A) (A) (A)
                 (A) (A) (A) (A) (A) (A) (A) (A) (A) (A) (A) (A)
                 (A) (A) (A) (A) (A) (A) (A) (A) (A) (A) (A) (A)
                 (A) (A) (A) (A) (A) (A) (A) (A) (A) (A) (A) (A)
                 (A) (A) (A) (A) (A) (A) (A) (A) (A) (A) (A) (A)
                 (A) (A) (A) (A) (A) (A) (A) (A) (A) (A) (A) (A)
                 (A) (A) (A) (A) (A) (A) (A) (A) (A) (A) (A) (A)
                 (A) (A) (A) (A) (A) (A) (A) (A) (A) (A) (A) (A)
                 (A) (A) (A) (A) (A) (A) (A) (A) (A) (A) (A) (A)
                 (A) (A) (A) (A) (A) (A) (A) (A) (A) (A) (A) (A)
                 (A) (A) (A) (A) (A) (A) (A) (A) (A) (A) (A) (A)
                 (A) (A) (A) (A) (A) (A) (A) (A) (A) (A) (A) (A)
                 (A) (A) (A) (A) (A) (A) (A) (A) (A) (A) (A) (A)
                 (A) (A) (A) (A) (A) (A) (A) (A)
 Beta  Orbitals:
       Occupied  (A) (A) (A) (A) (A) (A) (A) (A) (A) (A) (A) (A)
                 (A) (A) (A) (A) (A) (A) (A) (A) (A) (A) (A) (A)
                 (A) (A) (A) (A) (A) (A) (A) (A) (A) (A) (A) (A)
                 (A) (A) (A) (A) (A) (A) (A) (A) (A) (A) (A) (A)
                 (A) (A) (A) (A) (A) (A) (A) (A) (A) (A) (A) (A)
                 (A) (A) (A) (A) (A) (A) (A) (A) (A) (A) (A) (A)
                 (A) (A) (A) (A) (A) (A) (A) (A) (A) (A) (A) (A)
                 (A) (A) (A) (A) (A) (A) (A) (A) (A) (A) (A) (A)
                 (A) (A) (A) (A) (A) (A) (A) (A) (A) (A) (A) (A)
                 (A) (A) (A) (A) (A) (A) (A) (A) (A) (A) (A) (A)
                 (A) (A) (A) (A) (A) (A) (A) (A) (A) (A) (A) (A)
                 (A) (A) (A) (A) (A) (A) (A) (A) (A) (A) (A) (A)
                 (A) (A) (A) (A) (A) (A) (A) (A) (A) (A) (A) (A)
                 (A) (A) (A) (A) (A) (A) (A) (A) (A) (A) (A) (A)
                 (A) (A) (A) (A) (A) (A) (A) (A) (A) (A) (A) (A)
                 (A) (A) (A) (A) (A) (A) (A) (A) (A) (A) (A) (A)
                 (A) (A) (A) (A) (A) (A) (A) (A) (A) (A) (A) (A)
                 (A) (A) (A) (A) (A) (A) (A) (A) (A) (A) (A) (A)
                 (A) (A) (A) (A) (A) (A) (A) (A) (A) (A) (A) (A)
                 (A) (A) (A) (A) (A) (A) (A) (A) (A) (A) (A) (A)
                 (A) (A) (A) (A) (A) (A) (A) (A) (A) (A) (A) (A)
                 (A) (A) (A) (A) (A) (A) (A) (A) (A) (A) (A) (A)
                 (A) (A) (A) (A) (A) (A) (A) (A) (A) (A)
       Virtual   (A) (A) (A) (A) (A) (A) (A) (A) (A) (A) (A) (A)
                 (A) (A) (A) (A) (A) (A) (A) (A) (A) (A) (A) (A)
                 (A) (A) (A) (A) (A) (A) (A) (A) (A) (A) (A) (A)
                 (A) (A) (A) (A) (A) (A) (A) (A) (A) (A) (A) (A)
                 (A) (A) (A) (A) (A) (A) (A) (A) (A) (A) (A) (A)
                 (A) (A) (A) (A) (A) (A) (A) (A) (A) (A) (A) (A)
                 (A) (A) (A) (A) (A) (A) (A) (A) (A) (A) (A) (A)
                 (A) (A) (A) (A) (A) (A) (A) (A) (A) (A) (A) (A)
                 (A) (A) (A) (A) (A) (A) (A) (A) (A) (A) (A) (A)
                 (A) (A) (A) (A) (A) (A) (A) (A) (A) (A) (A) (A)
                 (A) (A) (A) (A) (A) (A) (A) (A) (A) (A) (A) (A)
                 (A) (A) (A) (A) (A) (A) (A) (A) (A) (A) (A) (A)
                 (A) (A) (A) (A) (A) (A) (A) (A) (A) (A) (A) (A)
                 (A) (A) (A) (A) (A) (A) (A) (A) (A) (A) (A) (A)
                 (A) (A) (A) (A) (A) (A) (A) (A) (A) (A) (A) (A)
                 (A) (A) (A) (A) (A) (A) (A) (A) (A) (A) (A) (A)
                 (A) (A) (A) (A) (A) (A) (A) (A) (A) (A) (A) (A)
                 (A) (A) (A) (A) (A) (A) (A) (A) (A) (A) (A) (A)
                 (A) (A) (A) (A) (A) (A) (A) (A) (A) (A) (A) (A)
                 (A) (A) (A) (A) (A) (A) (A) (A) (A) (A) (A) (A)
                 (A) (A) (A) (A) (A) (A) (A) (A) (A) (A) (A) (A)
                 (A) (A) (A) (A) (A) (A) (A) (A) (A) (A) (A) (A)
                 (A) (A) (A) (A) (A) (A) (A) (A) (A) (A) (A) (A)
                 (A) (A) (A) (A) (A) (A) (A) (A) (A) (A) (A) (A)
                 (A) (A) (A) (A) (A) (A) (A) (A) (A) (A) (A) (A)
                 (A) (A) (A) (A) (A) (A) (A) (A) (A) (A) (A) (A)
                 (A) (A) (A) (A) (A) (A) (A) (A) (A) (A) (A) (A)
                 (A) (A) (A) (A) (A) (A) (A) (A) (A) (A) (A) (A)
                 (A) (A) (A) (A) (A) (A) (A) (A) (A) (A) (A) (A)
                 (A) (A) (A) (A) (A) (A) (A) (A) (A) (A) (A) (A)
                 (A) (A) (A) (A) (A) (A) (A) (A) (A) (A) (A) (A)
                 (A) (A) (A) (A) (A) (A) (A) (A) (A) (A) (A) (A)
                 (A) (A) (A) (A) (A) (A) (A) (A) (A) (A) (A) (A)
                 (A) (A) (A) (A) (A) (A) (A) (A) (A) (A) (A) (A)
                 (A) (A) (A) (A) (A) (A) (A) (A) (A) (A) (A) (A)
                 (A) (A) (A) (A) (A) (A) (A) (A) (A) (A) (A) (A)
                 (A) (A) (A) (A) (A) (A) (A) (A) (A) (A) (A) (A)
                 (A) (A) (A) (A) (A) (A) (A) (A) (A) (A) (A) (A)
                 (A) (A) (A) (A) (A) (A) (A) (A) (A) (A) (A) (A)
                 (A) (A) (A) (A) (A) (A) (A) (A) (A) (A) (A) (A)
                 (A) (A) (A) (A) (A) (A) (A) (A) (A) (A) (A) (A)
                 (A) (A) (A) (A) (A) (A) (A) (A) (A) (A) (A) (A)
                 (A) (A) (A) (A) (A) (A) (A) (A) (A) (A) (A) (A)
                 (A) (A) (A) (A) (A) (A) (A) (A) (A) (A) (A) (A)
                 (A) (A) (A) (A) (A) (A) (A) (A) (A) (A) (A) (A)
                 (A) (A) (A) (A) (A) (A) (A) (A) (A) (A) (A) (A)
                 (A) (A) (A) (A) (A) (A) (A) (A) (A) (A) (A) (A)
                 (A) (A) (A) (A) (A) (A) (A) (A) (A) (A) (A) (A)
                 (A) (A) (A) (A) (A) (A) (A) (A) (A) (A) (A) (A)
                 (A) (A) (A) (A) (A) (A) (A) (A) (A) (A) (A) (A)
                 (A) (A) (A) (A) (A) (A) (A) (A) (A) (A) (A) (A)
                 (A) (A) (A) (A) (A) (A) (A) (A) (A) (A) (A) (A)
                 (A) (A) (A) (A) (A) (A) (A) (A) (A) (A) (A) (A)
                 (A) (A) (A) (A) (A) (A) (A) (A) (A) (A) (A) (A)
                 (A) (A) (A) (A) (A) (A) (A) (A) (A) (A) (A) (A)
                 (A) (A) (A) (A) (A) (A) (A) (A) (A) (A) (A) (A)
                 (A) (A) (A) (A) (A) (A) (A) (A) (A) (A) (A) (A)
                 (A) (A) (A) (A) (A) (A) (A) (A) (A) (A) (A) (A)
                 (A) (A) (A) (A) (A) (A) (A) (A) (A) (A) (A) (A)
                 (A) (A) (A) (A) (A) (A) (A) (A) (A) (A) (A) (A)
                 (A) (A) (A) (A) (A) (A) (A) (A) (A) (A) (A) (A)
                 (A) (A) (A) (A) (A) (A) (A) (A) (A) (A) (A) (A)
                 (A) (A) (A) (A) (A) (A) (A) (A) (A) (A) (A) (A)
                 (A) (A) (A) (A) (A) (A) (A) (A) (A) (A) (A) (A)
                 (A) (A) (A) (A) (A) (A) (A) (A) (A) (A) (A) (A)
                 (A) (A) (A) (A) (A) (A) (A) (A) (A) (A) (A) (A)
                 (A) (A) (A) (A) (A) (A) (A) (A) (A) (A) (A) (A)
                 (A) (A) (A) (A) (A) (A) (A) (A) (A) (A) (A) (A)
                 (A) (A) (A) (A) (A) (A) (A) (A) (A) (A) (A) (A)
                 (A) (A) (A) (A) (A) (A) (A) (A) (A) (A) (A) (A)
                 (A) (A) (A) (A) (A) (A) (A) (A) (A) (A) (A) (A)
                 (A) (A) (A) (A) (A) (A) (A) (A) (A) (A) (A) (A)
                 (A) (A) (A) (A) (A) (A) (A) (A) (A) (A) (A) (A)
                 (A) (A) (A) (A) (A) (A) (A) (A) (A) (A) (A) (A)
                 (A) (A) (A) (A) (A) (A) (A) (A) (A) (A) (A) (A)
                 (A) (A) (A) (A) (A) (A) (A) (A) (A) (A) (A) (A)
                 (A) (A) (A) (A) (A) (A) (A) (A) (A) (A) (A) (A)
                 (A) (A) (A) (A) (A) (A) (A) (A) (A) (A) (A) (A)
                 (A) (A) (A) (A) (A) (A) (A) (A) (A) (A) (A) (A)
                 (A) (A) (A) (A) (A) (A) (A) (A) (A) (A) (A) (A)
                 (A) (A) (A) (A) (A) (A) (A) (A) (A) (A) (A) (A)
                 (A) (A) (A) (A) (A) (A) (A) (A) (A) (A) (A) (A)
                 (A) (A) (A) (A) (A) (A) (A) (A) (A) (A) (A) (A)
                 (A) (A) (A) (A) (A) (A) (A) (A) (A) (A) (A) (A)
                 (A) (A) (A) (A) (A) (A) (A) (A) (A) (A) (A) (A)
                 (A) (A) (A) (A) (A) (A) (A) (A) (A) (A) (A) (A)
                 (A) (A) (A) (A) (A) (A) (A) (A) (A) (A) (A) (A)
                 (A) (A) (A) (A) (A) (A) (A) (A) (A) (A) (A) (A)
                 (A) (A) (A) (A) (A) (A) (A) (A) (A) (A) (A) (A)
                 (A) (A) (A) (A) (A) (A) (A) (A) (A) (A) (A) (A)
                 (A) (A) (A) (A) (A) (A) (A) (A) (A) (A) (A) (A)
                 (A) (A) (A) (A) (A) (A) (A) (A) (A) (A) (A) (A)
                 (A) (A) (A) (A) (A) (A) (A) (A) (A) (A) (A) (A)
                 (A) (A) (A) (A) (A) (A) (A) (A) (A) (A) (A) (A)
                 (A) (A) (A) (A) (A) (A) (A) (A) (A) (A) (A) (A)
                 (A) (A) (A) (A) (A) (A) (A) (A) (A) (A) (A) (A)
                 (A) (A) (A) (A) (A) (A) (A) (A) (A) (A) (A) (A)
                 (A) (A) (A) (A) (A) (A) (A) (A) (A) (A) (A) (A)
                 (A) (A) (A) (A) (A) (A) (A) (A) (A) (A) (A) (A)
                 (A) (A) (A) (A) (A) (A) (A) (A) (A) (A) (A) (A)
                 (A) (A) (A) (A) (A) (A) (A) (A) (A) (A) (A) (A)
                 (A) (A) (A) (A) (A) (A) (A) (A) (A) (A) (A) (A)
                 (A) (A) (A) (A) (A) (A) (A) (A) (A) (A) (A) (A)
                 (A) (A) (A) (A) (A) (A) (A) (A) (A) (A) (A) (A)
                 (A) (A) (A) (A) (A) (A) (A) (A) (A) (A) (A) (A)
                 (A) (A) (A) (A) (A) (A) (A) (A) (A) (A) (A) (A)
                 (A) (A) (A) (A) (A) (A) (A) (A) (A) (A) (A) (A)
                 (A) (A) (A) (A) (A) (A) (A) (A) (A) (A) (A) (A)
                 (A) (A) (A) (A) (A) (A) (A) (A) (A) (A) (A) (A)
                 (A) (A) (A) (A) (A) (A) (A) (A) (A) (A) (A) (A)
                 (A) (A) (A) (A) (A) (A) (A) (A) (A) (A) (A) (A)
                 (A) (A) (A) (A) (A) (A) (A) (A) (A) (A) (A) (A)
                 (A) (A) (A) (A) (A) (A) (A) (A) (A) (A) (A) (A)
                 (A) (A) (A) (A) (A) (A) (A) (A) (A) (A) (A) (A)
                 (A) (A) (A) (A) (A) (A) (A) (A) (A) (A) (A) (A)
                 (A) (A) (A) (A) (A) (A) (A) (A) (A) (A) (A) (A)
                 (A) (A) (A) (A) (A) (A) (A) (A) (A) (A) (A) (A)
                 (A) (A) (A) (A) (A) (A) (A) (A) (A) (A) (A) (A)
                 (A) (A) (A) (A) (A) (A) (A) (A) (A) (A) (A) (A)
                 (A) (A) (A) (A) (A) (A) (A) (A) (A) (A) (A) (A)
                 (A) (A) (A) (A) (A) (A) (A) (A) (A) (A) (A) (A)
                 (A) (A) (A) (A) (A) (A) (A) (A) (A) (A) (A) (A)
                 (A) (A) (A) (A) (A) (A) (A) (A) (A) (A) (A) (A)
                 (A) (A) (A) (A) (A) (A) (A) (A) (A) (A) (A) (A)
                 (A) (A) (A) (A) (A) (A) (A) (A) (A) (A) (A) (A)
                 (A) (A) (A) (A) (A) (A) (A) (A) (A) (A) (A) (A)
                 (A) (A) (A) (A) (A) (A) (A) (A) (A) (A) (A) (A)
                 (A) (A) (A) (A) (A) (A) (A) (A) (A) (A) (A) (A)
                 (A) (A) (A) (A) (A) (A) (A) (A) (A) (A) (A) (A)
                 (A) (A) (A) (A) (A) (A) (A) (A) (A) (A) (A) (A)
                 (A) (A) (A) (A) (A) (A) (A) (A) (A) (A) (A) (A)
                 (A) (A) (A) (A) (A) (A) (A) (A) (A) (A) (A) (A)
                 (A) (A) (A) (A) (A) (A) (A) (A) (A) (A) (A) (A)
                 (A) (A) (A) (A) (A) (A) (A) (A) (A) (A) (A) (A)
                 (A) (A) (A) (A) (A) (A) (A) (A) (A) (A) (A) (A)
                 (A) (A) (A) (A) (A) (A) (A) (A) (A) (A) (A) (A)
                 (A) (A) (A) (A) (A) (A) (A) (A) (A) (A) (A) (A)
                 (A) (A) (A) (A) (A) (A) (A) (A) (A) (A) (A) (A)
                 (A) (A) (A) (A) (A) (A) (A) (A) (A) (A) (A) (A)
                 (A) (A) (A) (A) (A) (A) (A) (A) (A) (A) (A) (A)
                 (A) (A) (A) (A) (A) (A) (A) (A) (A) (A) (A) (A)
                 (A) (A) (A) (A) (A) (A) (A) (A) (A) (A) (A) (A)
                 (A) (A) (A) (A) (A) (A) (A) (A) (A) (A) (A) (A)
                 (A) (A) (A) (A) (A) (A) (A) (A) (A) (A) (A) (A)
                 (A) (A) (A) (A) (A) (A) (A) (A) (A) (A) (A) (A)
                 (A) (A) (A) (A) (A) (A) (A) (A) (A) (A) (A) (A)
                 (A) (A) (A) (A) (A) (A) (A) (A) (A) (A) (A) (A)
                 (A) (A) (A) (A) (A) (A) (A) (A) (A) (A) (A) (A)
                 (A) (A) (A) (A) (A) (A) (A) (A) (A) (A) (A) (A)
                 (A) (A) (A) (A) (A) (A) (A) (A) (A) (A) (A) (A)
                 (A) (A) (A) (A) (A) (A) (A) (A) (A) (A) (A) (A)
                 (A) (A) (A) (A) (A) (A) (A) (A) (A) (A) (A) (A)
                 (A) (A) (A) (A) (A) (A) (A) (A) (A) (A) (A) (A)
                 (A) (A) (A) (A) (A) (A) (A) (A) (A) (A) (A) (A)
                 (A) (A) (A) (A) (A) (A) (A) (A) (A) (A) (A) (A)
                 (A) (A) (A) (A) (A) (A) (A) (A) (A) (A) (A) (A)
                 (A) (A) (A) (A) (A) (A) (A) (A) (A) (A) (A) (A)
                 (A) (A) (A) (A) (A) (A) (A) (A) (A) (A) (A) (A)
                 (A) (A) (A) (A) (A) (A) (A) (A) (A) (A) (A) (A)
                 (A) (A) (A) (A) (A) (A) (A) (A) (A) (A) (A) (A)
                 (A) (A) (A) (A) (A) (A) (A) (A) (A) (A) (A) (A)
                 (A) (A) (A) (A) (A) (A) (A) (A) (A)
 The electronic state is 2-A.
 Alpha  occ. eigenvalues -- -234.21788-234.20114-234.20095-234.19332-144.21555
 Alpha  occ. eigenvalues --  -26.83302 -26.82255 -26.80408 -26.78740 -22.98286
 Alpha  occ. eigenvalues --  -22.98145 -22.97955 -22.97246 -22.97192 -22.96571
 Alpha  occ. eigenvalues --  -22.96449 -22.96324 -22.96201 -22.94846 -22.94592
 Alpha  occ. eigenvalues --  -22.94501 -18.69669 -18.68711 -18.68182 -18.68029
 Alpha  occ. eigenvalues --  -18.67856 -18.67746 -18.67575 -18.67228 -18.67220
 Alpha  occ. eigenvalues --  -18.67164 -18.67069 -18.66647 -18.66610 -18.66179
 Alpha  occ. eigenvalues --  -18.65702 -18.65385 -18.64841 -18.64449 -18.64347
 Alpha  occ. eigenvalues --  -18.64153 -18.63104 -18.62429 -14.87623 -14.00240
 Alpha  occ. eigenvalues --  -13.98666 -13.95877 -13.94866 -13.88636 -12.07681
 Alpha  occ. eigenvalues --  -12.07661 -12.07641  -9.95154  -9.92945  -9.92705
 Alpha  occ. eigenvalues --   -9.92288  -9.92110  -9.92108  -9.90688  -9.90188
 Alpha  occ. eigenvalues --   -9.88373  -9.88291  -9.87662  -9.87448  -9.85574
 Alpha  occ. eigenvalues --   -9.85051  -9.83987  -9.83868  -9.83324  -9.82519
 Alpha  occ. eigenvalues --   -9.82460  -9.82383  -9.82138  -9.82030  -9.81619
 Alpha  occ. eigenvalues --   -9.81420  -9.81292  -9.81261  -9.81037  -9.80559
 Alpha  occ. eigenvalues --   -3.00092  -2.98861  -2.90072  -2.88581  -1.90697
 Alpha  occ. eigenvalues --   -1.90498  -1.89748  -1.89326  -1.89019  -1.88597
 Alpha  occ. eigenvalues --   -1.80724  -1.80544  -1.80233  -1.79604  -1.78838
 Alpha  occ. eigenvalues --   -1.78613  -1.49124  -0.90789  -0.89948  -0.89685
 Alpha  occ. eigenvalues --   -0.89251  -0.89080  -0.88629  -0.88582  -0.87549
 Alpha  occ. eigenvalues --   -0.83216  -0.83052  -0.82103  -0.81887  -0.81821
 Alpha  occ. eigenvalues --   -0.81124  -0.81091  -0.80907  -0.80813  -0.80471
 Alpha  occ. eigenvalues --   -0.80252  -0.79169  -0.78827  -0.75529  -0.75140
 Alpha  occ. eigenvalues --   -0.74996  -0.73843  -0.72722  -0.72021  -0.71313
 Alpha  occ. eigenvalues --   -0.69698  -0.69548  -0.69110  -0.65959  -0.63106
 Alpha  occ. eigenvalues --   -0.62667  -0.62268  -0.62000  -0.61149  -0.60463
 Alpha  occ. eigenvalues --   -0.58859  -0.58109  -0.55200  -0.54088  -0.51396
 Alpha  occ. eigenvalues --   -0.51268  -0.50598  -0.50352  -0.50244  -0.49485
 Alpha  occ. eigenvalues --   -0.48587  -0.47942  -0.45226  -0.44384  -0.42193
 Alpha  occ. eigenvalues --   -0.41601  -0.41446  -0.41225  -0.40813  -0.40145
 Alpha  occ. eigenvalues --   -0.39897  -0.39578  -0.39281  -0.39039  -0.38645
 Alpha  occ. eigenvalues --   -0.37966  -0.36495  -0.36325  -0.35802  -0.35482
 Alpha  occ. eigenvalues --   -0.35108  -0.34975  -0.34680  -0.34439  -0.34358
 Alpha  occ. eigenvalues --   -0.34156  -0.33984  -0.33839  -0.33568  -0.33397
 Alpha  occ. eigenvalues --   -0.33288  -0.33155  -0.33018  -0.32752  -0.32557
 Alpha  occ. eigenvalues --   -0.32537  -0.32065  -0.32004  -0.31842  -0.31656
 Alpha  occ. eigenvalues --   -0.31540  -0.31488  -0.30551  -0.30143  -0.30103
 Alpha  occ. eigenvalues --   -0.29475  -0.29277  -0.29100  -0.28793  -0.28694
 Alpha  occ. eigenvalues --   -0.28515  -0.28271  -0.28153  -0.27696  -0.27639
 Alpha  occ. eigenvalues --   -0.27569  -0.27403  -0.27128  -0.27032  -0.26954
 Alpha  occ. eigenvalues --   -0.26691  -0.26616  -0.26112  -0.26037  -0.25798
 Alpha  occ. eigenvalues --   -0.25532  -0.25430  -0.25354  -0.25232  -0.25060
 Alpha  occ. eigenvalues --   -0.24751  -0.24513  -0.24285  -0.24248  -0.24057
 Alpha  occ. eigenvalues --   -0.23938  -0.23857  -0.23499  -0.23373  -0.23038
 Alpha  occ. eigenvalues --   -0.22855  -0.22693  -0.22494  -0.22135  -0.22031
 Alpha  occ. eigenvalues --   -0.21247  -0.21026  -0.20692  -0.20611  -0.20003
 Alpha  occ. eigenvalues --   -0.19940  -0.19625  -0.19257  -0.19133  -0.18784
 Alpha  occ. eigenvalues --   -0.18746  -0.18278  -0.18097  -0.17914  -0.17632
 Alpha  occ. eigenvalues --   -0.17475  -0.17399  -0.17134  -0.16611  -0.16457
 Alpha  occ. eigenvalues --   -0.16356  -0.16257  -0.15983  -0.15785  -0.15494
 Alpha  occ. eigenvalues --   -0.15402  -0.15248  -0.15167  -0.14969  -0.14829
 Alpha  occ. eigenvalues --   -0.14380  -0.14188  -0.14052  -0.13854  -0.13337
 Alpha  occ. eigenvalues --   -0.13017  -0.12886  -0.12678  -0.12192  -0.11906
 Alpha  occ. eigenvalues --   -0.10887  -0.10829  -0.09566  -0.09130  -0.08469
 Alpha virt. eigenvalues --   -0.03511  -0.03206  -0.02782  -0.02750  -0.01522
 Alpha virt. eigenvalues --   -0.00823  -0.00617   0.00255   0.00875   0.02530
 Alpha virt. eigenvalues --    0.02769   0.03022   0.03525   0.04307   0.04628
 Alpha virt. eigenvalues --    0.05179   0.05287   0.05698   0.06132   0.06256
 Alpha virt. eigenvalues --    0.06637   0.06944   0.07715   0.07848   0.08190
 Alpha virt. eigenvalues --    0.08750   0.09209   0.09499   0.09781   0.10037
 Alpha virt. eigenvalues --    0.10166   0.10739   0.11092   0.11257   0.11409
 Alpha virt. eigenvalues --    0.11682   0.11856   0.12114   0.12624   0.12846
 Alpha virt. eigenvalues --    0.13270   0.13564   0.14109   0.14251   0.14367
 Alpha virt. eigenvalues --    0.14611   0.14809   0.15133   0.15425   0.15534
 Alpha virt. eigenvalues --    0.15664   0.15785   0.16270   0.16345   0.16428
 Alpha virt. eigenvalues --    0.16559   0.16701   0.16830   0.16917   0.17069
 Alpha virt. eigenvalues --    0.17223   0.17281   0.17408   0.17702   0.17831
 Alpha virt. eigenvalues --    0.17986   0.18234   0.18357   0.18450   0.18621
 Alpha virt. eigenvalues --    0.18701   0.18858   0.18993   0.19230   0.19334
 Alpha virt. eigenvalues --    0.19531   0.19677   0.20005   0.20231   0.20570
 Alpha virt. eigenvalues --    0.20623   0.20678   0.20770   0.21024   0.21165
 Alpha virt. eigenvalues --    0.21394   0.21486   0.21741   0.22005   0.22030
 Alpha virt. eigenvalues --    0.22172   0.22273   0.22566   0.22821   0.22880
 Alpha virt. eigenvalues --    0.23176   0.23432   0.23668   0.23808   0.24075
 Alpha virt. eigenvalues --    0.24473   0.24513   0.24642   0.24821   0.24877
 Alpha virt. eigenvalues --    0.25323   0.25413   0.25624   0.25836   0.26062
 Alpha virt. eigenvalues --    0.26398   0.26627   0.27002   0.27018   0.27144
 Alpha virt. eigenvalues --    0.27485   0.27799   0.27891   0.28023   0.28159
 Alpha virt. eigenvalues --    0.28335   0.28665   0.28701   0.28771   0.29037
 Alpha virt. eigenvalues --    0.29372   0.29558   0.29671   0.29924   0.29986
 Alpha virt. eigenvalues --    0.30102   0.30403   0.30713   0.30815   0.31147
 Alpha virt. eigenvalues --    0.31331   0.31596   0.31715   0.32048   0.32242
 Alpha virt. eigenvalues --    0.32568   0.32892   0.33156   0.33444   0.33533
 Alpha virt. eigenvalues --    0.33791   0.33894   0.34054   0.34273   0.34566
 Alpha virt. eigenvalues --    0.34642   0.34793   0.35312   0.35401   0.35464
 Alpha virt. eigenvalues --    0.35746   0.36241   0.36375   0.36608   0.36777
 Alpha virt. eigenvalues --    0.37024   0.37129   0.37150   0.37256   0.37486
 Alpha virt. eigenvalues --    0.37981   0.38068   0.38149   0.38686   0.38715
 Alpha virt. eigenvalues --    0.39097   0.39380   0.39560   0.39731   0.39879
 Alpha virt. eigenvalues --    0.40225   0.40546   0.40823   0.40933   0.41140
 Alpha virt. eigenvalues --    0.41199   0.41453   0.41575   0.41646   0.41899
 Alpha virt. eigenvalues --    0.42102   0.42188   0.42324   0.42543   0.42664
 Alpha virt. eigenvalues --    0.42853   0.43067   0.43201   0.43538   0.43617
 Alpha virt. eigenvalues --    0.43665   0.43819   0.43965   0.44205   0.44418
 Alpha virt. eigenvalues --    0.44670   0.44684   0.44782   0.44887   0.45132
 Alpha virt. eigenvalues --    0.45347   0.45439   0.45591   0.45738   0.45812
 Alpha virt. eigenvalues --    0.45898   0.45998   0.46167   0.46346   0.46423
 Alpha virt. eigenvalues --    0.46449   0.46583   0.46642   0.46830   0.47088
 Alpha virt. eigenvalues --    0.47252   0.47356   0.47421   0.47677   0.47771
 Alpha virt. eigenvalues --    0.47893   0.48065   0.48154   0.48310   0.48423
 Alpha virt. eigenvalues --    0.48478   0.48627   0.48737   0.48799   0.48936
 Alpha virt. eigenvalues --    0.49033   0.49218   0.49384   0.49463   0.49589
 Alpha virt. eigenvalues --    0.49705   0.50015   0.50116   0.50310   0.50429
 Alpha virt. eigenvalues --    0.50622   0.50677   0.50738   0.51048   0.51075
 Alpha virt. eigenvalues --    0.51169   0.51337   0.51529   0.51695   0.51881
 Alpha virt. eigenvalues --    0.51972   0.52130   0.52217   0.52382   0.52618
 Alpha virt. eigenvalues --    0.52809   0.52932   0.53120   0.53330   0.53344
 Alpha virt. eigenvalues --    0.53523   0.53965   0.54118   0.54208   0.54248
 Alpha virt. eigenvalues --    0.54263   0.54583   0.54603   0.55057   0.55215
 Alpha virt. eigenvalues --    0.55378   0.55526   0.55828   0.56162   0.56309
 Alpha virt. eigenvalues --    0.56473   0.56552   0.56851   0.56964   0.57104
 Alpha virt. eigenvalues --    0.57254   0.57468   0.57569   0.57861   0.58178
 Alpha virt. eigenvalues --    0.58304   0.58788   0.58839   0.58922   0.59273
 Alpha virt. eigenvalues --    0.59441   0.59498   0.59571   0.59773   0.60066
 Alpha virt. eigenvalues --    0.60123   0.60523   0.60669   0.60875   0.60914
 Alpha virt. eigenvalues --    0.61187   0.61393   0.61711   0.62021   0.62195
 Alpha virt. eigenvalues --    0.62482   0.63055   0.63115   0.63302   0.63519
 Alpha virt. eigenvalues --    0.63615   0.63984   0.64257   0.64590   0.65234
 Alpha virt. eigenvalues --    0.65314   0.65505   0.65933   0.66156   0.66495
 Alpha virt. eigenvalues --    0.66735   0.66818   0.67012   0.67631   0.67903
 Alpha virt. eigenvalues --    0.67938   0.68296   0.68408   0.68826   0.69210
 Alpha virt. eigenvalues --    0.69618   0.69995   0.70330   0.70410   0.70714
 Alpha virt. eigenvalues --    0.70824   0.71270   0.71374   0.71603   0.71723
 Alpha virt. eigenvalues --    0.72260   0.72518   0.72944   0.73153   0.73407
 Alpha virt. eigenvalues --    0.73770   0.74363   0.74407   0.74675   0.74946
 Alpha virt. eigenvalues --    0.75350   0.75565   0.75715   0.75980   0.76519
 Alpha virt. eigenvalues --    0.76547   0.76790   0.77280   0.77448   0.77762
 Alpha virt. eigenvalues --    0.77924   0.78467   0.78654   0.78884   0.79151
 Alpha virt. eigenvalues --    0.79474   0.79601   0.79778   0.80024   0.80481
 Alpha virt. eigenvalues --    0.80726   0.80767   0.80877   0.81253   0.81682
 Alpha virt. eigenvalues --    0.81725   0.82011   0.82314   0.82387   0.82716
 Alpha virt. eigenvalues --    0.82946   0.83169   0.83270   0.83550   0.83619
 Alpha virt. eigenvalues --    0.84283   0.84469   0.84796   0.85069   0.85129
 Alpha virt. eigenvalues --    0.85397   0.85549   0.85817   0.86285   0.86456
 Alpha virt. eigenvalues --    0.86781   0.87250   0.87407   0.87631   0.87893
 Alpha virt. eigenvalues --    0.88013   0.88438   0.88606   0.88755   0.89219
 Alpha virt. eigenvalues --    0.89390   0.89597   0.89707   0.89879   0.90332
 Alpha virt. eigenvalues --    0.90530   0.91127   0.91198   0.91574   0.91712
 Alpha virt. eigenvalues --    0.91832   0.92066   0.92280   0.92410   0.92746
 Alpha virt. eigenvalues --    0.92763   0.93310   0.93663   0.93756   0.93969
 Alpha virt. eigenvalues --    0.94141   0.94366   0.94509   0.94607   0.94848
 Alpha virt. eigenvalues --    0.95079   0.95488   0.95825   0.96003   0.96199
 Alpha virt. eigenvalues --    0.96314   0.96980   0.97468   0.97657   0.97865
 Alpha virt. eigenvalues --    0.98086   0.98525   0.98656   0.98772   0.98946
 Alpha virt. eigenvalues --    0.99245   0.99703   0.99876   1.00324   1.00392
 Alpha virt. eigenvalues --    1.00614   1.00765   1.01078   1.01708   1.01765
 Alpha virt. eigenvalues --    1.01900   1.02055   1.02731   1.02777   1.03180
 Alpha virt. eigenvalues --    1.03236   1.03497   1.03695   1.04033   1.04614
 Alpha virt. eigenvalues --    1.04867   1.04922   1.05160   1.05540   1.05748
 Alpha virt. eigenvalues --    1.05993   1.06319   1.06667   1.06863   1.06908
 Alpha virt. eigenvalues --    1.07488   1.07854   1.08179   1.08328   1.08724
 Alpha virt. eigenvalues --    1.08955   1.09441   1.09506   1.09875   1.10192
 Alpha virt. eigenvalues --    1.10220   1.10395   1.10657   1.11200   1.11331
 Alpha virt. eigenvalues --    1.11482   1.11830   1.12178   1.12275   1.12338
 Alpha virt. eigenvalues --    1.12634   1.12954   1.12982   1.13479   1.13585
 Alpha virt. eigenvalues --    1.13758   1.14025   1.14214   1.14452   1.14806
 Alpha virt. eigenvalues --    1.14898   1.15057   1.15227   1.15413   1.15803
 Alpha virt. eigenvalues --    1.16144   1.16474   1.16692   1.16973   1.17056
 Alpha virt. eigenvalues --    1.17239   1.17413   1.17612   1.17865   1.18102
 Alpha virt. eigenvalues --    1.18311   1.18735   1.18976   1.19305   1.19697
 Alpha virt. eigenvalues --    1.19933   1.20026   1.20441   1.20895   1.21071
 Alpha virt. eigenvalues --    1.21177   1.21308   1.21459   1.21730   1.22146
 Alpha virt. eigenvalues --    1.22478   1.23078   1.23215   1.23331   1.23690
 Alpha virt. eigenvalues --    1.23943   1.24770   1.24929   1.25013   1.25634
 Alpha virt. eigenvalues --    1.25855   1.26135   1.26494   1.26789   1.26869
 Alpha virt. eigenvalues --    1.27060   1.27627   1.27795   1.27944   1.28336
 Alpha virt. eigenvalues --    1.28543   1.28920   1.29018   1.29518   1.29790
 Alpha virt. eigenvalues --    1.30062   1.30168   1.30757   1.31537   1.32019
 Alpha virt. eigenvalues --    1.32088   1.32380   1.32908   1.33998   1.34169
 Alpha virt. eigenvalues --    1.34671   1.34801   1.35039   1.35243   1.35408
 Alpha virt. eigenvalues --    1.35784   1.35919   1.36639   1.37235   1.38162
 Alpha virt. eigenvalues --    1.38179   1.38367   1.38929   1.38992   1.39399
 Alpha virt. eigenvalues --    1.39931   1.40597   1.40858   1.41460   1.42090
 Alpha virt. eigenvalues --    1.42333   1.42575   1.42701   1.42906   1.43297
 Alpha virt. eigenvalues --    1.43663   1.44044   1.44081   1.44230   1.44891
 Alpha virt. eigenvalues --    1.45430   1.45640   1.46000   1.46138   1.46737
 Alpha virt. eigenvalues --    1.47001   1.47367   1.47941   1.48272   1.48631
 Alpha virt. eigenvalues --    1.49062   1.49118   1.49264   1.49700   1.50203
 Alpha virt. eigenvalues --    1.50228   1.50639   1.50712   1.51203   1.51324
 Alpha virt. eigenvalues --    1.51535   1.51663   1.51737   1.51878   1.52380
 Alpha virt. eigenvalues --    1.52582   1.52626   1.53002   1.53368   1.53495
 Alpha virt. eigenvalues --    1.53770   1.54030   1.54181   1.54404   1.54508
 Alpha virt. eigenvalues --    1.54743   1.54893   1.54991   1.55179   1.55407
 Alpha virt. eigenvalues --    1.55673   1.55768   1.55987   1.56125   1.56368
 Alpha virt. eigenvalues --    1.56460   1.56696   1.56925   1.57304   1.57526
 Alpha virt. eigenvalues --    1.57794   1.57982   1.58189   1.58277   1.58464
 Alpha virt. eigenvalues --    1.58694   1.58934   1.59372   1.59443   1.59706
 Alpha virt. eigenvalues --    1.59821   1.59999   1.60289   1.60571   1.60692
 Alpha virt. eigenvalues --    1.60968   1.61201   1.61236   1.61492   1.61887
 Alpha virt. eigenvalues --    1.62343   1.62512   1.62765   1.62930   1.63328
 Alpha virt. eigenvalues --    1.63518   1.63849   1.63980   1.64218   1.64582
 Alpha virt. eigenvalues --    1.64732   1.65063   1.65194   1.65272   1.65390
 Alpha virt. eigenvalues --    1.65932   1.66238   1.66686   1.66842   1.67032
 Alpha virt. eigenvalues --    1.67319   1.67510   1.68003   1.68495   1.68689
 Alpha virt. eigenvalues --    1.69046   1.69330   1.69465   1.69645   1.69804
 Alpha virt. eigenvalues --    1.70174   1.70421   1.70587   1.71246   1.71409
 Alpha virt. eigenvalues --    1.71933   1.71980   1.72265   1.72597   1.72804
 Alpha virt. eigenvalues --    1.73164   1.73447   1.73813   1.74248   1.74530
 Alpha virt. eigenvalues --    1.74898   1.75322   1.75437   1.75760   1.76104
 Alpha virt. eigenvalues --    1.76168   1.76404   1.76698   1.77080   1.77345
 Alpha virt. eigenvalues --    1.77963   1.78197   1.78547   1.78663   1.79094
 Alpha virt. eigenvalues --    1.79167   1.79299   1.79718   1.80027   1.80127
 Alpha virt. eigenvalues --    1.80340   1.80615   1.80933   1.81030   1.81560
 Alpha virt. eigenvalues --    1.81829   1.82201   1.82503   1.83006   1.83478
 Alpha virt. eigenvalues --    1.83598   1.84071   1.84355   1.84518   1.84861
 Alpha virt. eigenvalues --    1.84922   1.85583   1.85870   1.86104   1.86283
 Alpha virt. eigenvalues --    1.87092   1.87218   1.87442   1.87542   1.87980
 Alpha virt. eigenvalues --    1.88262   1.88547   1.88997   1.89204   1.89416
 Alpha virt. eigenvalues --    1.89802   1.90145   1.90628   1.90850   1.91427
 Alpha virt. eigenvalues --    1.92023   1.92213   1.92421   1.92914   1.92998
 Alpha virt. eigenvalues --    1.93453   1.93611   1.94103   1.94229   1.94639
 Alpha virt. eigenvalues --    1.94916   1.95340   1.95474   1.96030   1.96180
 Alpha virt. eigenvalues --    1.96441   1.96670   1.97011   1.97246   1.97498
 Alpha virt. eigenvalues --    1.97573   1.97863   1.98090   1.98668   1.99344
 Alpha virt. eigenvalues --    1.99580   2.00038   2.00199   2.00299   2.00559
 Alpha virt. eigenvalues --    2.00682   2.01429   2.01787   2.01849   2.02258
 Alpha virt. eigenvalues --    2.02358   2.02855   2.03042   2.03450   2.03797
 Alpha virt. eigenvalues --    2.04062   2.04677   2.04979   2.05104   2.05393
 Alpha virt. eigenvalues --    2.05489   2.05877   2.06285   2.06518   2.06741
 Alpha virt. eigenvalues --    2.06887   2.07433   2.07537   2.07780   2.08277
 Alpha virt. eigenvalues --    2.08561   2.08731   2.09248   2.09619   2.10080
 Alpha virt. eigenvalues --    2.10405   2.10986   2.11123   2.11340   2.11492
 Alpha virt. eigenvalues --    2.11929   2.12520   2.12662   2.12960   2.13531
 Alpha virt. eigenvalues --    2.13986   2.14175   2.14458   2.14793   2.15651
 Alpha virt. eigenvalues --    2.15898   2.16092   2.16274   2.16818   2.17081
 Alpha virt. eigenvalues --    2.17399   2.17677   2.18109   2.18349   2.18686
 Alpha virt. eigenvalues --    2.18845   2.19310   2.19603   2.19841   2.20257
 Alpha virt. eigenvalues --    2.20632   2.20983   2.21507   2.21861   2.22367
 Alpha virt. eigenvalues --    2.22398   2.22520   2.23194   2.23469   2.23474
 Alpha virt. eigenvalues --    2.23876   2.24496   2.24747   2.25320   2.25485
 Alpha virt. eigenvalues --    2.26006   2.26286   2.26430   2.26587   2.27040
 Alpha virt. eigenvalues --    2.27264   2.27387   2.27641   2.28270   2.28488
 Alpha virt. eigenvalues --    2.28590   2.29094   2.29189   2.29569   2.29909
 Alpha virt. eigenvalues --    2.29984   2.30389   2.30706   2.31096   2.31134
 Alpha virt. eigenvalues --    2.31388   2.31628   2.31860   2.32246   2.32321
 Alpha virt. eigenvalues --    2.32598   2.32965   2.33199   2.33464   2.33650
 Alpha virt. eigenvalues --    2.34025   2.34477   2.34562   2.34603   2.35201
 Alpha virt. eigenvalues --    2.35296   2.35612   2.35855   2.36026   2.36415
 Alpha virt. eigenvalues --    2.36517   2.36587   2.36969   2.37383   2.37567
 Alpha virt. eigenvalues --    2.37854   2.37929   2.38091   2.38598   2.38687
 Alpha virt. eigenvalues --    2.39389   2.39614   2.39790   2.40089   2.40149
 Alpha virt. eigenvalues --    2.40434   2.40767   2.41035   2.41419   2.41607
 Alpha virt. eigenvalues --    2.42036   2.42170   2.42775   2.42904   2.43271
 Alpha virt. eigenvalues --    2.43673   2.43989   2.44439   2.44848   2.44913
 Alpha virt. eigenvalues --    2.45256   2.45563   2.45826   2.46052   2.46570
 Alpha virt. eigenvalues --    2.46926   2.47314   2.47648   2.47728   2.48400
 Alpha virt. eigenvalues --    2.48788   2.49543   2.49756   2.50058   2.50255
 Alpha virt. eigenvalues --    2.50432   2.50813   2.51106   2.51693   2.52049
 Alpha virt. eigenvalues --    2.52191   2.52732   2.52798   2.53369   2.53393
 Alpha virt. eigenvalues --    2.53711   2.53845   2.54242   2.54750   2.54881
 Alpha virt. eigenvalues --    2.55289   2.55505   2.55834   2.56106   2.56206
 Alpha virt. eigenvalues --    2.56694   2.56783   2.56984   2.57218   2.57307
 Alpha virt. eigenvalues --    2.57625   2.57667   2.57787   2.58313   2.58558
 Alpha virt. eigenvalues --    2.58811   2.59033   2.59252   2.59460   2.59911
 Alpha virt. eigenvalues --    2.60184   2.60362   2.60789   2.61139   2.61473
 Alpha virt. eigenvalues --    2.61793   2.62189   2.62714   2.62918   2.62971
 Alpha virt. eigenvalues --    2.63058   2.63323   2.63580   2.63717   2.64197
 Alpha virt. eigenvalues --    2.64570   2.64713   2.64893   2.65147   2.65253
 Alpha virt. eigenvalues --    2.66023   2.66210   2.66765   2.66834   2.67261
 Alpha virt. eigenvalues --    2.67327   2.67972   2.68030   2.68584   2.68839
 Alpha virt. eigenvalues --    2.68984   2.69473   2.69794   2.70012   2.70178
 Alpha virt. eigenvalues --    2.70413   2.70897   2.71344   2.71806   2.71933
 Alpha virt. eigenvalues --    2.72533   2.72834   2.73100   2.73526   2.73770
 Alpha virt. eigenvalues --    2.74069   2.74222   2.74421   2.75682   2.76187
 Alpha virt. eigenvalues --    2.76247   2.76514   2.76714   2.76845   2.77098
 Alpha virt. eigenvalues --    2.78189   2.78683   2.78902   2.79239   2.79704
 Alpha virt. eigenvalues --    2.80202   2.80392   2.81211   2.81825   2.82124
 Alpha virt. eigenvalues --    2.82519   2.82743   2.83121   2.83310   2.83794
 Alpha virt. eigenvalues --    2.84416   2.84750   2.84958   2.85379   2.85577
 Alpha virt. eigenvalues --    2.85746   2.85870   2.86414   2.86734   2.87038
 Alpha virt. eigenvalues --    2.87473   2.87821   2.88069   2.88149   2.88448
 Alpha virt. eigenvalues --    2.88751   2.88915   2.89267   2.89546   2.90347
[...]
 6,-0.00000016,0.00000294,-0.01251576,0.05028930,-0.00004826,-0.0000920
 2,-0.00000127,-0.00004651,-0.00013357,-0.00003396,-0.00018667,-0.00004
 223,-0.00002535,-0.00005680,-0.00008934,0.00008204,-0.00005489,-0.0000
 3419,0.00001059,0.00002373,0.00005487,-0.00000015,0.00002323,0.0000602
 8,0.00001888,0.00002915,0.00005146,0.00002292,0.00002991,0.00001924,-0
 .00001185,0.00018728,0.00007362,-0.00004911,-0.00000244,0.00000006,-0.
 00000130,0.00000126,-0.00000057,-0.00000012,0.00000546,0.00000244,0.00
 000238,0.00000570,-0.00000323,-0.00000049,-0.00003836,0.00000088,-0.00
 000924,0.00002493,0.00001301,0.00001125,0.00003943,-0.00000398,0.00000
 284,0.00000013,-0.00000187,0.00000170,0.00000685,-0.00000178,-0.000004
 27,-0.00007121,-0.00001897,0.00003365,0.00003581,0.00001358,-0.0000066
 0,0.00005030,0.00002569,-0.00006339,-0.00000004,-0.00000286,-0.0000005
 4,0.00000560,0.00000047,0.00000196,0.00000058,-0.00001373,-0.00001101,
 0.00000817,-0.00000825,-0.00000207,0.00001207,0.00000541,0.00001351,-0
 .00001411,0.00000129,-0.00001311,-0.00000897,0.00000548,-0.00000015,0.
 00001828,-0.00002098,-0.00000343,-0.00001855,0.00001376,-0.00001407,-0
 .00002015,0.00001579,0.00000622,0.00002537,-0.00000619,-0.00000006,0.0
 0000155,-0.00000503,-0.00000827,0.00000190,0.00000190,-0.00001213,-0.0
 0001549,0.00000779,0.00000598,0.00001721,-0.00009942,-0.00000235,-0.00
 001172,0.00007830,0.00001091,0.00001756,0.00004113,-0.00000814,0.09531
 206,-0.02935683,-0.23614464,0.00618718,0.00232539,-0.00691594,-0.00040
 593,-0.00143089,0.00130794,-0.00144485,-0.00040833,-0.00027496,0.00132
 264,0.00100277,-0.00025266,-0.00049505,0.00129060,-0.00006285,-0.00000
 866,-0.00000168,0.00000147,0.00000936,0.00001019,-0.00000604,0.0000150
 3,-0.00000561,-0.00000673,-0.00003295,0.00001727,0.00002503,-0.0000455
 3,-0.00004073,0.00003073,0.00007686,0.00004315,-0.00000612,0.00004736,
 0.00005406,-0.00002688,-0.00009161,-0.00001670,0.00002846,0.00003688,0
 .00001969,-0.00001644,0.00009574,-0.00001817,-0.00001377,0.00000290,0.
 00001284,-0.00001284,-0.00001577,0.00000317,0.00001848,-0.00001753,-0.
 00005608,-0.00011536,0.00004875,0.00004649,0.00007313,0.00001607,0.000
 03563,0.00002416,-0.00002322,0.00002272,0.00000773,-0.00000282,-0.0000
 0121,-0.00000004,0.00000929,-0.00000828,-0.00000115,-0.00037188,-0.000
 03053,0.00017426,0.00000144,0.00000032,0.00000197,0.00000146,0.0000016
 0,0.00000028,-0.00211044,0.00003565,0.00357566,0.00859648,-0.00362541,
 -0.01896088,-0.00002614,-0.00002674,0.00001953,-0.00000730,0.00000048,
 0.00001661,-0.00000026,-0.00000976,0.00002889,-0.00000062,-0.00000051,
 0.00000182,0.00002224,-0.00001527,0.00000331,-0.00000267,0.00001246,0.
 00000523,0.00001183,-0.00000377,0.00000035,-0.00000285,0.00000008,-0.0
 0000152,0.00000225,-0.00000010,0.00000149,0.00000354,-0.00000206,-0.00
 000271,0.00000629,-0.00000659,0.00000339,-0.00000539,0.00000860,-0.000
 00914,0.00002098,0.00000600,0.00000906,-0.00000138,-0.00000090,-0.0000
 5242,-0.00000099,0.,0.00000225,0.00000083,0.00000276,-0.00000277,0.000
 00054,0.00000185,0.00000344,-0.00000096,-0.00000134,-0.00000140,-0.000
 00368,0.00000736,-0.00000345,-0.00000220,0.00000420,0.00000212,-0.0000
 0186,0.00000252,0.00000205,-0.00001115,0.00000788,0.00000283,0.0000122
 2,-0.00000191,-0.00001292,0.00002238,0.00001357,0.00002534,-0.00000447
 ,-0.00001267,0.00002470,0.00000090,0.00000641,-0.00000280,0.00000253,0
 .00000326,0.00000364,0.00000805,-0.00001297,-0.00001923,0.00001576,0.0
 0001247,-0.00000950,-0.00000530,-0.00000826,0.00000262,0.00000932,0.00
 004256,0.00002734,-0.00001022,0.00000086,0.00000771,0.00000861,0.00002
 215,-0.00002435,-0.00000987,-0.00000442,0.00000942,0.00002040,0.000002
 61,-0.00001143,-0.00001235,0.00000127,0.00000337,-0.00000470,-0.000004
 15,-0.00000437,-0.00000032,-0.00000380,0.00000257,0.00000088,-0.000000
 24,-0.00000634,-0.10674720,0.03013617,0.25754029,-0.00002053,-0.000064
 38,-0.00002584,-0.00017026,-0.00013097,0.00035865,-0.00009349,0.000151
 31,-0.00002298,0.00000582,0.00003362,0.00000859,-0.00004035,0.00005981
 ,0.00000352,0.00005389,0.00009345,-0.00013830,0.00002497,0.00002445,0.
 00002312,0.00009605,-0.00010675,-0.00000846,0.00001293,-0.00002412,-0.
 00000847,0.00000783,-0.00006424,-0.00001555,0.00000026,0.00000065,-0.0
 0000060,0.00000044,-0.00000021,0.00000090,-0.00000094,-0.00000072,-0.0
 0000044,-0.00000190,0.00000013,-0.00000226,-0.00002277,0.00005994,0.00
 001593,0.00000309,-0.00004582,-0.00000809,0.00003351,-0.00002436,-0.00
 000312,0.00000009,0.00000031,-0.00000057,-0.00000099,0.00000133,0.0000
 0040,0.00000493,0.00000264,-0.00000388,0.00000181,-0.00000785,0.000000
 65,-0.00000414,-0.00000424,0.00000379,-0.00000024,0.00000028,0.0000000
 8,-0.00000123,-0.00000054,0.00000020,0.00000308,0.00000554,0.00000003,
 0.00000026,0.00000066,0.00000073,0.00000013,-0.00000162,-0.00000116,-0
 .00000208,-0.00000137,0.00000064,0.00000291,0.00000209,0.00000030,-0.0
 0000266,0.00000097,0.00000022,0.00000225,-0.00000230,0.00000160,0.0000
 0037,-0.00000350,0.00000040,-0.00000190,0.00000148,-0.00000100,-0.0000
 0194,0.00000122,-0.00000083,0.00000109,0.00000476,-0.00000134,0.000001
 00,0.00000016,0.00000232,0.00001882,-0.00000182,-0.00000887,-0.0000100
 6,-0.00000148,-0.00000249,-0.00001195,0.00000006,0.00000494,-0.0000038
 0,0.00000795,-0.00000181,-0.00000634,0.00001660,0.00000806,-0.00000719
 ,-0.00001278,0.00001409,0.00001343,0.00001406,0.00001422,0.00001948,-0
 .00001041,-0.00000473,-0.00002304,-0.00000818,0.00000700,0.00000251,0.
 00000004,0.00000056,-0.00000321,-0.00000067,-0.00000397,-0.00000119,-0
 .00000053,-0.00000005,0.00000111,0.00000045,-0.00000075,-0.00000989,0.
 00001729,-0.00002140,0.00000488,-0.00001691,0.00001001,-0.00000014,-0.
 00002603,0.00001028,0.00007159,0.00006921,-0.00006936,-0.00001796,-0.0
 0008057,0.00003557,0.00001495,-0.00006874,0.00009262,-0.06670504,-0.03
 431675,0.06511746,0.00412578,0.00796847,-0.01641991,-0.00217825,0.0024
 6547,0.00099190,0.00060480,-0.00032094,-0.00021637,0.00047825,0.001474
 45,-0.00112319,-0.00000130,-0.00000645,0.00000086,0.,-0.00000155,0.000
 00002,-0.00000005,0.00000038,0.00000083,0.00002859,0.00001636,-0.00000
 094,0.00000385,0.00000048,0.00000163,0.00000100,-0.00000058,0.00000014
 ,0.00000152,-0.00001401,-0.00001279,0.00000546,-0.00000460,0.00001027,
 0.00001836,0.00000166,-0.00001259,0.00000077,-0.00000247,-0.00000048,-
 0.00000026,0.00000135,-0.00000284,0.00000425,-0.00000114,0.00000301,-0
 .00000033,0.00000145,-0.00000100,0.00000056,-0.00000020,-0.00000026,-0
 .00000321,0.00000142,-0.00000284,0.00000269,-0.00000646,-0.00000966,0.
 00002427,-0.00000203,-0.00000365,0.00000113,-0.00000466,0.00001283,-0.
 00801489,-0.01223677,0.02583964,-0.00008992,0.00223647,-0.00366467,0.0
 0050490,-0.00055615,0.00040518,0.00085861,-0.00076644,-0.00024431,0.00
 000045,-0.00000023,-0.00000016,-0.00000023,-0.00000042,0.00000023,-0.0
 0000025,-0.00000023,-0.00000030,0.00000033,-0.00000010,-0.00000037,0.0
 0000005,-0.00000054,0.00000067,0.00000022,-0.00000066,-0.00000009,0.00
 000054,-0.00000055,-0.00000046,-0.00000024,-0.00000129,0.00000127,-0.0
 0000026,-0.00000135,0.00000214,-0.00000184,-0.00000131,-0.00000267,0.0
 0000121,0.00000070,-0.00000203,-0.00000142,-0.00000085,0.00000044,-0.0
 0000113,0.00000088,-0.00000049,-0.00000041,0.00000057,0.00000264,0.000
 01183,-0.00000835,-0.00000806,-0.00000064,0.00000334,0.00000270,0.0000
 0392,0.00000770,0.00000477,-0.00001088,0.00000279,0.00000863,0.0000062
 1,0.00001320,-0.00000807,0.00000447,0.00001412,-0.00001657,0.00000212,
 -0.00001506,0.00001045,-0.00000402,0.00000343,-0.00000316,-0.00000277,
 0.00000217,0.00000147,-0.00000028,0.00000296,-0.00000216,-0.00000011,0
 .00000010,0.00000081,-0.00001619,-0.00000243,0.00000183,0.07039453,0.0
 0007229,0.00029844,0.00004225,0.00017903,0.00060857,-0.00071595,0.0000
 4185,-0.00011096,-0.00044090,-0.00010969,0.00000918,-0.00013951,0.0001
 2420,-0.00000506,-0.00006010,-0.00010219,-0.00027354,0.00026016,-0.000
 06239,-0.00016272,-0.00004244,-0.00007521,0.00006443,0.00013598,-0.000
 00335,-0.00004712,0.00016637,0.00003680,0.00002391,0.00007250,0.000006
 06,-0.00000083,0.00000247,-0.00000421,0.00000099,0.00000137,-0.0000098
 5,-0.00000490,-0.00000378,-0.00000970,0.00000642,0.00000250,0.00009264
 ,-0.00003286,0.00001045,-0.00004909,0.00000116,-0.00000942,-0.00009266
 ,0.00001970,-0.00000609,-0.00000289,0.00000007,0.00000055,-0.00000849,
 0.00000271,0.00000591,0.00004556,0.00000844,-0.00005282,-0.00001967,-0
 .00000304,0.00003431,-0.00002991,-0.00002296,0.00007968,0.00000107,0.0
 0000188,0.00000051,-0.00000216,0.00000006,-0.00000119,-0.00000619,-0.0
 0000245,0.00000308,-0.00000480,0.00000604,0.00000019,-0.00000232,0.000
 00214,-0.00000455,0.00004119,-0.00001190,0.00001313,0.00000256,0.00000
 920,0.00000223,-0.00002923,-0.00000469,-0.00000857,0.00003096,-0.00001
 504,0.00001014,0.00001347,-0.00000593,-0.00000169,-0.00000676,0.000010
 05,0.00000398,0.00000486,-0.00000074,0.00000387,-0.00000251,-0.0000141
 7,0.00000049,0.00000836,-0.00000777,-0.00000730,-0.00006696,0.00010695
 ,0.00002692,0.00009107,-0.00009290,-0.00000336,0.00003032,-0.00003979,
 -0.00000797,-0.00000355,-0.00000666,0.00000872,-0.00000679,-0.00001399
 ,0.00000553,0.00004178,0.00002371,-0.00002617,0.00000924,-0.00004888,0
 .00001109,-0.00006142,0.00001539,0.00000661,0.00005469,0.00004806,-0.0
 0000678,0.00000055,0.00000930,-0.00000018,0.00000847,-0.00000172,0.000
 01373,-0.00000246,-0.00000131,-0.00000182,0.00001307,-0.00000015,0.000
 00056,-0.00004742,-0.00004140,-0.00003215,0.00005987,0.00007734,0.0000
 6218,0.00003512,0.00006436,0.00001768,0.00010376,-0.00003063,-0.000015
 17,-0.00004468,0.00003161,0.00000752,-0.00012398,0.00008448,0.00001345
 ,-0.03388828,-0.08875427,0.09053440,-0.00744347,-0.01279374,0.02387568
 ,0.00431589,-0.00204460,-0.00305180,-0.00055792,0.00066230,0.00047320,
 -0.00072898,-0.00256723,0.00195933,0.00001574,-0.00000085,-0.00000441,
 0.00000510,0.00000365,-0.00000126,-0.00000914,0.00000696,0.00000004,-0
 .00007257,-0.00002722,-0.00001626,-0.00000497,0.00000027,-0.00000398,-
 0.00000345,-0.00000334,-0.00000146,-0.00000326,0.00000668,0.00000143,0
 .00000346,0.00000650,-0.00000364,0.00000610,-0.00002614,0.00000977,-0.
 00000248,0.00000148,0.00000088,-0.00000179,0.00000035,-0.00000017,-0.0
 0001406,0.00000513,-0.00001112,-0.00001551,0.00000278,-0.00000034,0.00
 000006,-0.00000570,-0.00000280,-0.00002366,-0.00000094,-0.00000415,0.0
 0000046,0.00000733,0.00000799,-0.00000752,-0.00000071,-0.00000111,-0.0
 0000445,0.00000758,0.00000065,-0.00196934,-0.00401981,0.00562520,0.006
 89511,0.00959924,-0.01592150,-0.00072690,0.00043192,-0.00047443,-0.000
 11630,0.00133527,-0.00033845,0.00000104,0.00000014,-0.00000228,0.00000
 046,-0.00000211,0.00000350,0.00000025,-0.00000105,-0.00000384,0.000000
 34,0.00000134,0.00000321,0.00000205,-0.00000469,0.00000191,0.00000161,
 -0.00000265,-0.00000178,-0.00000053,0.00000071,-0.00000105,0.,-0.00000
 140,-0.00000195,-0.00000054,0.00000710,0.00000214,0.00000252,0.0000053
 4,0.00000259,-0.00000386,0.00000079,-0.00000302,0.00000596,-0.00000450
 ,0.00000209,0.00000571,-0.00000271,-0.00000234,-0.00000146,0.00000413,
 0.00000137,-0.00004191,-0.00001090,0.00003396,0.00000692,0.00000504,-0
 .00001094,-0.00001721,-0.00009075,-0.00006339,0.00003267,-0.00000451,-
 0.00002703,-0.00001721,-0.00006697,0.00006120,0.00001276,-0.00000181,-
 0.00000866,-0.00003138,0.00000670,0.00001982,0.00001507,-0.00000427,-0
 .00000681,0.00001179,0.00000540,0.00001005,-0.00000022,0.00000146,0.00
 000100,0.00000030,0.00000014,0.00000768,0.00001329,0.00000522,-0.00000
 941,0.03419536,0.09779142,-0.00005439,-0.00023394,0.00000084,-0.000067
 10,-0.00051816,0.00035797,-0.00020239,-0.00025353,0.00082044,0.0001416
 0,-0.00006596,0.00015044,-0.00010500,-0.00006442,0.00004998,0.00005295
 ,0.00016846,-0.00009944,0.00004090,0.00014205,0.00000791,0.00001242,0.
 00007877,-0.00006259,-0.00001263,0.00011687,-0.00021977,-0.00006988,0.
 00007923,-0.00008374,-0.00000478,0.00000017,-0.00000271,0.00000256,-0.
 00000120,-0.00000003,0.00001025,0.00000494,0.00000429,0.00001051,-0.00
 000485,-0.00000077,-0.00007581,-0.00000254,-0.00001859,0.00004853,0.00
 002634,0.00001883,0.00006983,-0.00000488,0.00000547,0.00000361,-0.0000
 0044,-0.00000012,0.00001243,-0.00000505,-0.00000726,-0.00006539,-0.000
 01511,0.00007011,0.00002373,0.00001549,-0.00004182,0.00004250,0.000036
 11,-0.00010516,-0.00000105,-0.00000237,-0.00000093,0.00000280,0.000000
 36,0.00000148,0.00000943,0.00000597,0.00000065,0.00000531,-0.00000782,
 -0.00000078,0.00000057,0.00000114,0.00000583,-0.00005143,0.00001940,-0
 .00001655,-0.00000778,-0.00001867,-0.00000379,0.00004326,0.00000745,0.
 00001256,-0.00004414,0.00002137,-0.00001354,-0.00001651,0.00000632,-0.
 00000261,0.00000904,-0.00001082,-0.00000191,-0.00000509,0.00000088,-0.
 00000421,0.00000279,0.00001190,0.00000013,-0.00000797,0.00000915,0.000
 00990,0.00005566,-0.00011557,-0.00001778,-0.00009305,0.00011180,-0.000
 00143,-0.00002352,0.00004157,0.00000224,-0.00001890,0.00003462,-0.0000
 0412,0.00004762,0.00008281,-0.00002865,-0.00008470,-0.00002580,0.00003
 744,0.00002547,0.00002536,-0.00001446,0.00005924,-0.00002534,-0.000005
 87,-0.00009601,-0.00009359,0.00003284,-0.00000923,-0.00001650,-0.00001
 393,-0.00000544,-0.00000186,0.00000686,0.00000216,0.00000230,0.0000043
 5,-0.00001877,-0.00000839,-0.00000542,0.00014977,0.00002828,0.00013228
 ,-0.00012030,-0.00005500,-0.00016107,-0.00007835,-0.00001386,-0.000060
 05,-0.00025937,-0.00004761,0.00008121,0.00010067,0.00007499,-0.0000521
 2,0.00020885,-0.00000202,-0.00010865,0.06406530,0.09129173,-0.22157651
 ,0.00147331,0.00053803,-0.00402378,-0.00036258,-0.00116160,0.00058908,
 -0.00022552,0.00132324,-0.00040961,0.00004424,0.00140720,-0.00046134,-
 0.00002129,-0.00000112,0.00000364,-0.00000504,-0.00000243,0.00000032,0
 .00001045,-0.00000795,0.00000023,0.00010535,0.00002849,0.00000605,0.00
 000227,0.00000017,0.00000369,0.00000291,0.00000323,0.00000048,0.000017
 86,-0.00002767,-0.00002947,-0.00000060,-0.00002353,0.00001216,0.000068
 14,0.00002974,0.00001246,-0.00000134,-0.00000376,0.00000062,0.00000474
 ,-0.00000200,-0.00000030,0.00001099,-0.00000421,0.00000904,0.00001977,
 -0.00000219,0.00000070,0.00000059,0.00000544,0.00000286,0.00002863,-0.
 00001218,0.00000231,-0.00000915,0.00000257,0.00000449,-0.00000161,-0.0
 0000080,0.00000277,0.00000894,-0.00000126,-0.00000919,-0.00080258,-0.0
 0211228,0.00248594,0.00739593,0.01090992,-0.01823349,-0.00015173,0.000
 32617,0.00050065,-0.00032842,-0.00009952,-0.00000066,-0.00000175,0.000
 00026,0.00000288,-0.00000044,0.00000288,-0.00000487,0.,0.00000130,0.00
 000535,-0.00000077,-0.00000143,-0.00000374,-0.00000251,0.00000594,-0.0
 0000260,-0.00000207,0.00000325,0.00000230,-0.00000004,-0.00000031,0.00
 000152,0.00001417,0.00002026,0.00000404,-0.00000174,-0.00000594,-0.000
 00666,-0.00000397,-0.00000565,-0.00000266,0.00000382,-0.00000031,0.000
 00143,-0.00000615,0.00000515,-0.00000347,-0.00000439,0.00000018,0.0000
 0168,0.00000295,-0.00000254,0.00000033,0.00003286,0.00002092,-0.000028
 29,-0.00000704,-0.00001006,0.00000882,0.00001482,0.00008280,0.00004976
 ,-0.00002378,0.00000308,0.00002052,0.00001140,0.00005673,-0.00006134,-
 0.00002052,-0.00001301,0.00002710,0.00003516,0.00000838,-0.00003307,-0
 .00001443,0.00000137,0.00001114,-0.00001081,-0.00000777,-0.00000710,0.
 00000092,-0.00000567,0.00000235,-0.00000023,-0.00000010,-0.00001039,-0
 .00003567,-0.00000403,0.00002056,-0.07092482,-0.10209793,0.24045702\\0
 .00035393,0.00040928,0.00053637,-0.00200324,0.00081813,0.00198359,0.00
 007559,-0.00150981,-0.00121983,-0.00000525,-0.00096365,0.00089677,0.00
 068410,0.00013838,-0.00028657,0.00010631,-0.00071472,-0.00015771,-0.00
 027403,-0.00031357,-0.00027208,0.00124409,0.00038502,-0.00061015,0.000
 02651,0.00039881,0.00068366,-0.00056217,0.00099412,-0.00027611,-0.0000
 0353,-0.00000252,0.00000569,-0.00000752,-0.00000181,0.00000495,-0.0000
 0466,-0.00000391,0.00000619,0.00000268,0.00000541,-0.00001437,-0.00005
 543,0.00013191,0.00006988,-0.00002344,-0.00011893,0.00001499,0.0000493
 7,-0.00007339,0.00002276,-0.00000412,0.00000266,-0.00000160,-0.0000379
 3,-0.00001732,0.00000124,0.00018565,0.00006789,0.00006460,-0.00006779,
 -0.00002165,-0.00001683,-0.00011561,0.00001048,0.00033565,0.00000195,0
 .00000166,-0.00000386,0.00000386,-0.00000223,-0.00000404,0.00000369,0.
 00000461,0.00001619,0.00000481,-0.00000065,-0.00000204,-0.00002262,-0.
 00000075,0.00000018,0.00004062,0.00003239,0.00000922,0.00005157,-0.000
 06464,0.00001541,0.00000214,-0.00004361,-0.00001055,0.00012043,-0.0000
 1668,-0.00009213,-0.00000690,0.00000261,-0.00001845,-0.00000133,-0.000
 01345,0.00000284,-0.00000410,0.00000081,-0.00000622,0.00000886,0.00001
 280,-0.00000072,0.00001997,0.00004519,-0.00000118,-0.00024061,-0.00026
 896,0.00008771,-0.00014994,0.00038098,-0.00004232,0.00013446,0.0000576
 3,-0.00010535,-0.00000279,0.00000015,-0.00000724,-0.00001642,0.0000009
 8,-0.00000011,-0.00002540,-0.00002266,-0.00000048,-0.00000814,0.000032
 06,-0.00000544,0.00002980,-0.00002863,0.00000252,-0.00007245,-0.000013
 54,0.00003325,-0.00000072,-0.00000275,-0.00000646,0.00000004,0.0000128
 0,-0.00000022,0.00000514,0.00000063,-0.00000211,-0.00002289,0.00004884
 ,-0.00004510,0.00019703,-0.00029713,0.00028755,-0.00037862,-0.00014849
 ,-0.00029596,-0.00001013,0.00026595,-0.00012308,-0.00025491,-0.0002090
 4,0.00013681,-0.00000955,0.00018779,0.00001170,0.00022446,-0.00041290,
 -0.00024558,-0.00000728,0.00000524,-0.00000544,-0.00005377,0.00006224,
 -0.00001739,-0.00030048,-0.00095327,0.00027666,0.00047035,0.00088159,-
 0.00016824,0.00073608,0.00074126,-0.00115113,-0.00000191,-0.00000576,-
 0.00001583,-0.00000189,-0.00000153,0.00000851,0.00000490,-0.00000298,0
 .00000123,0.00012924,0.00003219,-0.00009470,-0.00000392,-0.00000350,0.
 00000568,0.00000293,-0.00000240,0.00000875,-0.00000154,-0.00000236,-0.
 00000644,-0.00000262,-0.00000288,-0.00000760,-0.00000515,-0.00000897,-
 0.00001217,-0.00000020,0.00000065,-0.00000288,0.00000629,0.00000106,0.
 00000379,0.00001064,0.00003160,-0.00000292,-0.00000113,0.00000155,0.00
 000238,-0.00000136,0.00000043,-0.00000446,0.00000971,0.00001042,0.0000
 3745,-0.00000298,0.00000708,0.00000030,0.00000907,-0.00000738,0.000002
 95,-0.00000083,0.00000086,0.00000129,-0.00000151,-0.00000168,-0.000001
 62,-0.00000319,-0.00000539,0.00000020,-0.00001201,-0.00000386,0.000025
 60,-0.00001316,-0.00000770,0.00002479,0.00000786,0.00000163,-0.0000020
 1,-0.00000081,0.00000294,0.00002166,0.00000576,0.00000171,-0.00000574,
 0.00000217,0.00000249,0.00001271,0.00000351,0.00000276,-0.00000151,0.0
 0000276,0.00000113,-0.00000204,0.00000188,-0.00000010,0.00000439,0.000
 00233,0.00000621,-0.00000388,-0.00001375,-0.00001748,-0.00001464,-0.00
 000411,-0.00000342,-0.00000841,0.00000305,-0.00000634,-0.00000201,-0.0
 0002122,0.00001567,0.00000171,-0.00001243,0.00000412,0.00000359,-0.000
 00533,-0.00000195,-0.00000453,0.00000549,-0.00004401,-0.00000818,0.000
 01019,0.00001579,0.00000672,-0.00016945,0.00010485,-0.00003139,-0.0000
 3702,0.00006217,0.00003130,0.00004122,-0.00004112,-0.00018859,0.000005
 37,-0.00000112,0.00000336,-0.00000143,-0.00000362,-0.00000853,0.000023
 12,-0.00000287,0.00000950,0.00001161,-0.00000982,-0.00007124,-0.000008
 93,-0.00001673,-0.00000249,0.00000851,0.00000315,0.00000745,-0.0000049
 1,-0.00000265,-0.00000493,-0.00000454,-0.00000248,-0.00000688\\\@


 UNDER MOST GREENE GRASSE LY MOST GREATE SNAKES.
 -- PROVERBS AND REASONS OF THE YEAR 1585
           AS REPRINTED IN PAISLEY MAGAZINE 1828.
 Job cpu time:      14 days  9 hours 51 minutes 25.1 seconds.
 File lengths (MBytes):  RWF=  77585 Int=      0 D2E=      0 Chk=    378 Scr=      1
 Normal termination of Gaussian 09 at Sun Dec 13 13:01:04 2020.
real 62486.11
user 1240073.92
sys 5012.16
Machine:
brown-a077
brown-a077
brown-a077
brown-a077
brown-a077
brown-a077
brown-a077
brown-a077
brown-a077
brown-a077
brown-a077
brown-a077
brown-a077
brown-a077
brown-a077
brown-a077
brown-a077
brown-a077
brown-a077
brown-a077
brown-a077
brown-a077
brown-a077
brown-a077
