
                                 *****************
                                 * O   R   C   A *
                                 *****************

                                            #,                                       
                                            ###                                      
                                            ####                                     
                                            #####                                    
                                            ######                                   
                                           ########,                                 
                                     ,,################,,,,,                         
                               ,,#################################,,                 
                          ,,##########################################,,             
                       ,#########################################, ''#####,          
                    ,#############################################,,   '####,        
                  ,##################################################,,,,####,       
                ,###########''''           ''''###############################       
              ,#####''   ,,,,##########,,,,          '''####'''          '####       
            ,##' ,,,,###########################,,,                        '##       
           ' ,,###''''                  '''############,,,                           
         ,,##''                                '''############,,,,        ,,,,,,###''
      ,#''                                            '''#######################'''  
     '                                                          ''''####''''         
             ,#######,   #######,   ,#######,      ##                                
            ,#'     '#,  ##    ##  ,#'     '#,    #''#        ######   ,####,        
            ##       ##  ##   ,#'  ##            #'  '#       #        #'  '#        
            ##       ##  #######   ##           ,######,      #####,   #    #        
            '#,     ,#'  ##    ##  '#,     ,#' ,#      #,         ##   #,  ,#        
             '#######'   ##     ##  '#######'  #'      '#     #####' # '####'        



                  #######################################################
                  #                        -***-                        #
                  #          Department of theory and spectroscopy      #
                  #    Directorship and core code : Frank Neese         #
                  #        Max Planck Institute fuer Kohlenforschung    #
                  #                Kaiser Wilhelm Platz 1               #
                  #                 D-45470 Muelheim/Ruhr               #
                  #                      Germany                        #
                  #                                                     #
                  #                  All rights reserved                #
                  #                        -***-                        #
                  #######################################################


                         Program Version 5.0.4 -  RELEASE  -


 With contributions from (in alphabetic order):
   Daniel Aravena         : Magnetic Suceptibility
   Michael Atanasov       : Ab Initio Ligand Field Theory (pilot matlab implementation)
   Alexander A. Auer      : GIAO ZORA, VPT2 properties, NMR spectrum
   Ute Becker             : Parallelization
   Giovanni Bistoni       : ED, misc. LED, open-shell LED, HFLD
   Martin Brehm           : Molecular dynamics
   Dmytro Bykov           : SCF Hessian
   Vijay G. Chilkuri      : MRCI spin determinant printing, contributions to CSF-ICE
   Dipayan Datta          : RHF DLPNO-CCSD density
   Achintya Kumar Dutta   : EOM-CC, STEOM-CC
   Dmitry Ganyushin       : Spin-Orbit,Spin-Spin,Magnetic field MRCI
   Miquel Garcia          : C-PCM and meta-GGA Hessian, CC/C-PCM, Gaussian charge scheme
   Yang Guo               : DLPNO-NEVPT2, F12-NEVPT2, CIM, IAO-localization
   Andreas Hansen         : Spin unrestricted coupled pair/coupled cluster methods
   Benjamin Helmich-Paris : MC-RPA, TRAH-SCF, COSX integrals
   Lee Huntington         : MR-EOM, pCC
   Robert Izsak           : Overlap fitted RIJCOSX, COSX-SCS-MP3, EOM
   Marcus Kettner         : VPT2
   Christian Kollmar      : KDIIS, OOCD, Brueckner-CCSD(T), CCSD density, CASPT2, CASPT2-K
   Simone Kossmann        : Meta GGA functionals, TD-DFT gradient, OOMP2, MP2 Hessian
   Martin Krupicka        : Initial AUTO-CI
   Lucas Lang             : DCDCAS
   Marvin Lechner         : AUTO-CI (C++ implementation), FIC-MRCC
   Dagmar Lenk            : GEPOL surface, SMD
   Dimitrios Liakos       : Extrapolation schemes; Compound Job, initial MDCI parallelization
   Dimitrios Manganas     : Further ROCIS development; embedding schemes
   Dimitrios Pantazis     : SARC Basis sets
   Anastasios Papadopoulos: AUTO-CI, single reference methods and gradients
   Taras Petrenko         : DFT Hessian,TD-DFT gradient, ASA, ECA, R-Raman, ABS, FL, XAS/XES, NRVS
   Peter Pinski           : DLPNO-MP2, DLPNO-MP2 Gradient
   Christoph Reimann      : Effective Core Potentials
   Marius Retegan         : Local ZFS, SOC
   Christoph Riplinger    : Optimizer, TS searches, QM/MM, DLPNO-CCSD(T), (RO)-DLPNO pert. Triples
   Tobias Risthaus        : Range-separated hybrids, TD-DFT gradient, RPA, STAB
   Michael Roemelt        : Original ROCIS implementation
   Masaaki Saitow         : Open-shell DLPNO-CCSD energy and density
   Barbara Sandhoefer     : DKH picture change effects
   Avijit Sen             : IP-ROCIS
   Kantharuban Sivalingam : CASSCF convergence, NEVPT2, FIC-MRCI
   Bernardo de Souza      : ESD, SOC TD-DFT
   Georgi Stoychev        : AutoAux, RI-MP2 NMR, DLPNO-MP2 response
   Willem Van den Heuvel  : Paramagnetic NMR
   Boris Wezisla          : Elementary symmetry handling
   Frank Wennmohs         : Technical directorship


 We gratefully acknowledge several colleagues who have allowed us to
 interface, adapt or use parts of their codes:
   Stefan Grimme, W. Hujo, H. Kruse, P. Pracht,  : VdW corrections, initial TS optimization,
                  C. Bannwarth, S. Ehlert          DFT functionals, gCP, sTDA/sTD-DF
   Ed Valeev, F. Pavosevic, A. Kumar             : LibInt (2-el integral package), F12 methods
   Garnet Chan, S. Sharma, J. Yang, R. Olivares  : DMRG
   Ulf Ekstrom                                   : XCFun DFT Library
   Mihaly Kallay                                 : mrcc  (arbitrary order and MRCC methods)
   Jiri Pittner, Ondrej Demel                    : Mk-CCSD
   Frank Weinhold                                : gennbo (NPA and NBO analysis)
   Christopher J. Cramer and Donald G. Truhlar   : smd solvation model
   Lars Goerigk                                  : TD-DFT with DH, B97 family of functionals
   V. Asgeirsson, H. Jonsson                     : NEB implementation
   FAccTs GmbH                                   : IRC, NEB, NEB-TS, DLPNO-Multilevel, CI-OPT
                                                   MM, QMMM, 2- and 3-layer-ONIOM, Crystal-QMMM,
                                                   LR-CPCM, SF, NACMEs, symmetry and pop. for TD-DFT,
                                                   nearIR, NL-DFT gradient (VV10), updates on ESD,
                                                   ML-optimized integration grids
   S Lehtola, MJT Oliveira, MAL Marques          : LibXC Library
   Liviu Ungur et al                             : ANISO software


 Your calculation uses the libint2 library for the computation of 2-el integrals
 For citations please refer to: http://libint.valeyev.net

 Your ORCA version has been built with support for libXC version: 5.1.0
 For citations please refer to: https://tddft.org/programs/libxc/

 This ORCA versions uses:
   CBLAS   interface :  Fast vector & matrix operations
   LAPACKE interface :  Fast linear algebra routines
   SCALAPACK package :  Parallel linear algebra routines
   Shared memory     :  Shared parallel matrices
   BLAS/LAPACK       :  OpenBLAS 0.3.15  USE64BITINT DYNAMIC_ARCH NO_AFFINITY Zen SINGLE_THREADED
        Core in use  :  Zen
   Copyright (c) 2011-2014, The OpenBLAS Project


================================================================================

----- Orbital basis set information -----
Your calculation utilizes the basis: ZORA-def2-TZVP 
   Exponents from def2-TZVP [F. Weigend and R. Ahlrichs, Phys. Chem. Chem. Phys. 7, 3297 (2005)],
   recontracted for ZORA by D. A. Pantazis.

----- AuxJ basis set information -----
Your calculation utilizes the auxiliary basis: def2/J
   F. Weigend, Phys. Chem. Chem. Phys. 8, 1057 (2006).

================================================================================
                                        WARNINGS
                       Please study these warnings very carefully!
================================================================================

INFO   : Checking CIS options ...

WARNING: CIS/ROCIS methods need fully converged wavefunctions
  ===> : Setting SCFConvForced true
         You can overwrite this default with %scf ConvForced false 


INFO   : the flag for use of the SHARK integral package has been found!

================================================================================
                                       INPUT FILE
================================================================================
NAME = KXAS_Cu_II_H2O_APP_E2_opt.inp
|  1> ! UKS B3LYP ZORA-def2-TZVP def2/J RIJCOSX TightSCF ZORA
|  2> %tddft
|  3> doquad true  
|  4> nroots 60
|  5> maxdim 10
|  6> end
|  7> * xyz 2 2
|  8>  C                 -0.79747600   -4.20488000   -0.10253400
|  9>  N                  0.39435800   -4.12945700   -0.80812900
| 10>  C                 -1.05943000   -2.90437400    0.27014100
| 11>  C                  0.81746800   -2.84284600   -0.84168700
| 12>  N                 -0.05058400   -2.06830800   -0.19098500
| 13>  C                  4.27583100   -0.04677900   -0.46591500
| 14>  N                  4.14905000   -0.60910000    0.79603900
| 15>  C                  2.98032100    0.21813700   -0.85733000
| 16>  C                  2.83628300   -0.67609100    1.13166600
| 17>  N                  2.09984200   -0.17722700    0.14032300
| 18>  C                 -4.10276600    0.63359500    0.00767100
| 19>  N                 -3.89101000    0.00507800   -1.21084200
| 20>  C                 -2.85447100    0.68759600    0.58958700
| 21>  C                 -2.57670000   -0.30200800   -1.33673100
| 22>  N                 -1.91877400    0.10323600   -0.25078100
| 23>  C                 -0.07647700    4.16460600   -0.33161100
| 24>  N                  0.87970400    4.00015100    0.65971900
| 25>  C                 -0.47920700    2.88340600   -0.63798300
| 26>  C                  1.03741800    2.67984300    0.91784100
| 27>  N                  0.21694600    1.97105000    0.14227600
| 28>  Cu                 0.07513600   -0.05424700    0.07831900
| 29>  C                 -0.48565500    5.49564100   -0.86133400
| 30>  H                 -0.90961800    6.13340200   -0.07058900
| 31>  H                  0.36565600    6.03255300   -1.30708700
| 32>  H                 -1.24845900    5.37185600   -1.63939800
| 33>  C                 -1.53187300   -5.48052200    0.12876100
| 34>  H                 -0.92139300   -6.20237400    0.69266400
| 35>  H                 -2.44506800   -5.29020800    0.70544700
| 36>  H                 -1.82416400   -5.95660500   -0.81974100
| 37>  C                 -5.44146200    1.10042100    0.46601600
| 38>  H                 -5.86895200    1.84344000   -0.22454300
| 39>  H                 -6.15562100    0.26663100    0.54654600
| 40>  H                 -5.35830200    1.56842700    1.45427900
| 41>  C                  5.58776700    0.17393800   -1.13704600
| 42>  H                  6.23402300    0.84525100   -0.55101300
| 43>  H                  6.13212900   -0.77144700   -1.28415800
| 44>  H                  5.43391100    0.63031900   -2.12228800
| 45>  H                 -1.91019600   -2.52388400    0.82462500
| 46>  H                  1.72770800   -2.51556200   -1.33246900
| 47>  H                  2.63823800    0.67477400   -1.78028200
| 48>  H                  2.45570900   -1.06661500    2.06939600
| 49>  H                 -2.57707900    1.10934500    1.54883200
| 50>  H                 -2.15171300   -0.80802100   -2.19715500
| 51>  H                 -1.21867000    2.56992900   -1.36556300
| 52>  H                  1.73985000    2.28281400    1.64206900
| 53>  H                  1.38539100    4.75285400    1.12155500
| 54>  H                  4.92053100   -0.91861400    1.38332500
| 55>  H                  0.87469300   -4.91596800   -1.24007300
| 56>  H                 -4.60877800   -0.19519200   -1.90405800
| 57>  O                 -0.02962900   -0.42913600    2.59512800
| 58>  H                 -0.19709200    0.21367800    3.30753100
| 59>  H                 -0.38880700   -1.27058500    2.92947100
| 60> *
| 61> 
| 62>                          ****END OF INPUT****
================================================================================

                       ****************************
                       * Single Point Calculation *
                       ****************************

---------------------------------
CARTESIAN COORDINATES (ANGSTROEM)
---------------------------------
  C     -0.797476   -4.204880   -0.102534
  N      0.394358   -4.129457   -0.808129
  C     -1.059430   -2.904374    0.270141
  C      0.817468   -2.842846   -0.841687
  N     -0.050584   -2.068308   -0.190985
  C      4.275831   -0.046779   -0.465915
  N      4.149050   -0.609100    0.796039
  C      2.980321    0.218137   -0.857330
  C      2.836283   -0.676091    1.131666
  N      2.099842   -0.177227    0.140323
  C     -4.102766    0.633595    0.007671
  N     -3.891010    0.005078   -1.210842
  C     -2.854471    0.687596    0.589587
  C     -2.576700   -0.302008   -1.336731
  N     -1.918774    0.103236   -0.250781
  C     -0.076477    4.164606   -0.331611
  N      0.879704    4.000151    0.659719
  C     -0.479207    2.883406   -0.637983
  C      1.037418    2.679843    0.917841
  N      0.216946    1.971050    0.142276
  Cu     0.075136   -0.054247    0.078319
  C     -0.485655    5.495641   -0.861334
  H     -0.909618    6.133402   -0.070589
  H      0.365656    6.032553   -1.307087
  H     -1.248459    5.371856   -1.639398
  C     -1.531873   -5.480522    0.128761
  H     -0.921393   -6.202374    0.692664
  H     -2.445068   -5.290208    0.705447
  H     -1.824164   -5.956605   -0.819741
  C     -5.441462    1.100421    0.466016
  H     -5.868952    1.843440   -0.224543
  H     -6.155621    0.266631    0.546546
  H     -5.358302    1.568427    1.454279
  C      5.587767    0.173938   -1.137046
  H      6.234023    0.845251   -0.551013
  H      6.132129   -0.771447   -1.284158
  H      5.433911    0.630319   -2.122288
  H     -1.910196   -2.523884    0.824625
  H      1.727708   -2.515562   -1.332469
  H      2.638238    0.674774   -1.780282
  H      2.455709   -1.066615    2.069396
  H     -2.577079    1.109345    1.548832
  H     -2.151713   -0.808021   -2.197155
  H     -1.218670    2.569929   -1.365563
  H      1.739850    2.282814    1.642069
  H      1.385391    4.752854    1.121555
  H      4.920531   -0.918614    1.383325
  H      0.874693   -4.915968   -1.240073
  H     -4.608778   -0.195192   -1.904058
  O     -0.029629   -0.429136    2.595128
  H     -0.197092    0.213678    3.307531
  H     -0.388807   -1.270585    2.929471

----------------------------
CARTESIAN COORDINATES (A.U.)
----------------------------
  NO LB      ZA    FRAG     MASS         X           Y           Z
   0 C     6.0000    0    12.011   -1.507011   -7.946072   -0.193761
   1 N     7.0000    0    14.007    0.745229   -7.803543   -1.527142
   2 C     6.0000    0    12.011   -2.002033   -5.488471    0.510493
   3 C     6.0000    0    12.011    1.544791   -5.372200   -1.590558
   4 N     7.0000    0    14.007   -0.095590   -3.908536   -0.360909
   5 C     6.0000    0    12.011    8.080150   -0.088399   -0.880452
   6 N     7.0000    0    14.007    7.840568   -1.151032    1.504296
   7 C     6.0000    0    12.011    5.631990    0.412219   -1.620119
   8 C     6.0000    0    12.011    5.359798   -1.277627    2.138539
   9 N     7.0000    0    14.007    3.968126   -0.334910    0.265172
  10 C     6.0000    0    12.011   -7.753104    1.197321    0.014496
  11 N     7.0000    0    14.007   -7.352943    0.009596   -2.288160
  12 C     6.0000    0    12.011   -5.394168    1.299368    1.114158
  13 C     6.0000    0    12.011   -4.869257   -0.570712   -2.526056
  14 N     7.0000    0    14.007   -3.625957    0.195088   -0.473907
  15 C     6.0000    0    12.011   -0.144521    7.869965   -0.626654
  16 N     7.0000    0    14.007    1.662400    7.559190    1.246688
  17 C     6.0000    0    12.011   -0.905570    5.448848   -1.205613
  18 C     6.0000    0    12.011    1.960436    5.064169    1.734468
  19 N     7.0000    0    14.007    0.409969    3.724745    0.268863
  20 Cu   29.0000    0    63.550    0.141986   -0.102512    0.148001
  21 C     6.0000    0    12.011   -0.917755   10.385256   -1.627685
  22 H     1.0000    0     1.008   -1.718929   11.590450   -0.133394
  23 H     1.0000    0     1.008    0.690990   11.399873   -2.470036
  24 H     1.0000    0     1.008   -2.359246   10.151337   -3.098013
  25 C     6.0000    0    12.011   -2.894820  -10.356686    0.243323
  26 H     1.0000    0     1.008   -1.741180  -11.720788    1.308945
  27 H     1.0000    0     1.008   -4.620509   -9.997044    1.333102
  28 H     1.0000    0     1.008   -3.447170  -11.256352   -1.549086
  29 C     6.0000    0    12.011  -10.282873    2.079494    0.880643
  30 H     1.0000    0     1.008  -11.090712    3.483597   -0.424325
  31 H     1.0000    0     1.008  -11.632438    0.503860    1.032822
  32 H     1.0000    0     1.008  -10.125723    2.963897    2.748189
  33 C     6.0000    0    12.011   10.559349    0.328695   -2.148706
  34 H     1.0000    0     1.008   11.780596    1.597293   -1.041264
  35 H     1.0000    0     1.008   11.588044   -1.457824   -2.426707
  36 H     1.0000    0     1.008   10.268604    1.191130   -4.010543
  37 H     1.0000    0     1.008   -3.609747   -4.769450    1.558315
  38 H     1.0000    0     1.008    3.264895   -4.753723   -2.518001
  39 H     1.0000    0     1.008    4.985547    1.275138   -3.364245
  40 H     1.0000    0     1.008    4.640617   -2.015610    3.910592
  41 H     1.0000    0     1.008   -4.869974    2.096358    2.926868
  42 H     1.0000    0     1.008   -4.066148   -1.526938   -4.152021
  43 H     1.0000    0     1.008   -2.302953    4.856462   -2.580540
  44 H     1.0000    0     1.008    3.287840    4.313893    3.103061
  45 H     1.0000    0     1.008    2.618010    8.981592    2.119432
  46 H     1.0000    0     1.008    9.298456   -1.735929    2.614105
  47 H     1.0000    0     1.008    1.652930   -9.289833   -2.343398
  48 H     1.0000    0     1.008   -8.709328   -0.368859   -3.598148
  49 O     8.0000    0    15.999   -0.055991   -0.810950    4.904081
  50 H     1.0000    0     1.008   -0.372450    0.403793    6.250328
  51 H     1.0000    0     1.008   -0.734739   -2.401058    5.535898

--------------------------------
INTERNAL COORDINATES (ANGSTROEM)
--------------------------------
 C      0   0   0     0.000000000000     0.00000000     0.00000000
 N      1   0   0     1.387090918617     0.00000000     0.00000000
 C      1   2   0     1.377977652133   104.45367996     0.00000000
 C      2   1   3     1.354812192440   109.42528779     0.33466255
 N      4   2   1     1.332980300287   109.65411727   359.76665487
 C      4   2   1     4.463123335092   146.60066925   136.95284930
 N      6   4   2     1.387373859894    75.63207752   295.40958820
 C      6   4   2     1.379033121205    50.83971420   172.60972843
 C      7   6   4     1.356646775509   109.47955443   317.85716439
 N      9   7   6     1.331905244612   109.41493800   359.86890096
 C      3   1   2     4.674185400127   145.38104854   121.11840458
 N     11   3   1     1.387316890258    66.86007945   315.20723299
 C     11   3   1     1.378326066677    54.28720364   185.22748995
 C     12  11   3     1.355566533895   109.40183606   320.26558484
 N     14  12  11     1.332807834428   109.51590402   359.84887093
 C     15  14  12     4.460416796893   117.77332806   267.23658112
 N     16  15  14     1.387105879407    99.42833332   201.83847740
 C     16  15  14     1.377508147084    15.50645560   312.33897689
 C     17  16  15     1.354516108263   109.39143620    15.36005917
 N     19  17  16     1.333065223032   109.61764546   359.58972247
 Cu    15  14  12     2.027013762506   126.45851907   181.72594608
 C     16  15  14     1.489861491427   134.94888522    39.55213401
 H     22  16  15     1.100800333174   111.59037120    98.34200847
 H     22  16  15     1.100772751967   111.55163663   219.02607192
 H     22  16  15     1.096620379501   110.02694942   338.61639541
 C      1   2   3     1.489999611677   123.29971973   179.98366397
 H     26   1   2     1.100791866664   111.56722922    60.55657752
 H     26   1   2     1.096681936214   110.08882362   180.23687360
 H     26   1   2     1.100792939464   111.55471219   299.97183655
 C     11   3   1     1.490004575066   143.59565539    70.47831001
 H     30  11   3     1.100770942086   111.55659682   204.24525533
 H     30  11   3     1.100778779901   111.59745675   324.86552475
 H     30  11   3     1.096635289786   110.04697853    84.56088839
 C      6   4   2     1.490070092763   137.48640287    59.53664813
 H     34   6   4     1.100791823459   111.55841402   193.57115688
 H     34   6   4     1.100783687113   111.61587720   314.15584900
 H     34   6   4     1.096657231983   110.04532200    73.87676463
 H      3   1   2     1.084448215966   128.21062056   178.80549101
 H      4   2   1     1.084674442301   124.04410941   179.91004600
 H      8   6   4     1.085070745602   128.20220135   236.27719009
 H      9   7   6     1.084750255567   124.82935014   180.51738836
 H     13  11   3     1.083960105673   128.36163587   226.22459216
 H     14  12  11     1.084892882322   123.99521287   179.40107025
 H     18  16  15     1.083718604758   128.15905764   107.24320951
 H     19  17  16     1.084227345832   124.03250070   178.92178464
 H     17  16  15     1.017631386640   125.39416625   195.31146675
 H      7   6   4     1.017785191164   125.36973278   138.22050409
 H      2   1   3     1.017790196692   125.40626056   180.73894215
 H     12  11   3     1.017765885349   125.43236884   140.28045453
 O     21  15  14     2.546732221893    97.55170263   213.86497658
 H     50  21  15     0.974049141149   129.25080599   283.92926914
 H     50  21  15     0.974079307312   118.78579899    69.57826545

---------------------------
INTERNAL COORDINATES (A.U.)
---------------------------
 C      0   0   0     0.000000000000     0.00000000     0.00000000
 N      1   0   0     2.621221959036     0.00000000     0.00000000
 C      1   2   0     2.604000381195   104.45367996     0.00000000
 C      2   1   3     2.560224006610   109.42528779     0.33466255
 N      4   2   1     2.518967709454   109.65411727   359.76665487
 C      4   2   1     8.434080805237   146.60066925   136.95284930
 N      6   4   2     2.621756640561    75.63207752   295.40958820
 C      6   4   2     2.605994928684    50.83971420   172.60972843
 C      7   6   4     2.563690866179   109.47955443   317.85716439
 N      9   7   6     2.516936148651   109.41493800   359.86890096
 C      3   1   2     8.832930305412   145.38104854   121.11840458
 N     11   3   1     2.621648983550    66.86007945   315.20723299
 C     11   3   1     2.604658789265    54.28720364   185.22748995
 C     12  11   3     2.561649505371   109.40183606   320.26558484
 N     14  12  11     2.518641796213   109.51590402   359.84887093
 C     15  14  12     8.428966189271   117.77332806   267.23658112
 N     16  15  14     2.621250230832    99.42833332   201.83847740
 C     16  15  14     2.603113145235    15.50645560   312.33897689
 C     17  16  15     2.559664488602   109.39143620    15.36005917
 N     19  17  16     2.519128190186   109.61764546   359.58972247
 Cu    15  14  12     3.830500880826   126.45851907   181.72594608
 C     16  15  14     2.815430196273   134.94888522    39.55213401
 H     22  16  15     2.080211157827   111.59037120    98.34200847
 H     22  16  15     2.080159036901   111.55163663   219.02607192
 H     22  16  15     2.072312190134   110.02694942   338.61639541
 C      1   2   3     2.815691205719   123.29971973   179.98366397
 H     26   1   2     2.080195158442   111.56722922    60.55657752
 H     26   1   2     2.072428515462   110.08882362   180.23687360
 H     26   1   2     2.080197185741   111.55471219   299.97183655
 C     11   3   1     2.815700585164   143.59565539    70.47831001
 H     30  11   3     2.080155616722   111.55659682   204.24525533
 H     30  11   3     2.080170428045   111.59745675   324.86552475
 H     30  11   3     2.072340366490   110.04697853    84.56088839
 C      6   4   2     2.815824395668   137.48640287    59.53664813
 H     34   6   4     2.080195076797   111.55841402   193.57115688
 H     34   6   4     2.080179701331   111.61587720   314.15584900
 H     34   6   4     2.072381831232   110.04532200    73.87676463
 H      3   1   2     2.049310134595   128.21062056   178.80549101
 H      4   2   1     2.049737640412   124.04410941   179.91004600
 H      8   6   4     2.050486545118   128.20220135   236.27719009
 H      9   7   6     2.049880906722   124.82935014   180.51738836
 H     13  11   3     2.048387739818   128.36163587   226.22459216
 H     14  12  11     2.050150432230   123.99521287   179.40107025
 H     18  16  15     2.047931369227   128.15905764   107.24320951
 H     19  17  16     2.048892750530   124.03250070   178.92178464
 H     17  16  15     1.923044626031   125.39416625   195.31146675
 H      7   6   4     1.923335274461   125.36973278   138.22050409
 H      2   1   3     1.923344733537   125.40626056   180.73894215
 H     12  11   3     1.923298791757   125.43236884   140.28045453
 O     21  15  14     4.812626435810    97.55170263   213.86497658
 H     50  21  15     1.840686117754   129.25080599   283.92926914
 H     50  21  15     1.840743123540   118.78579899    69.57826545

---------------------
BASIS SET INFORMATION
---------------------
There are 5 groups of distinct atoms

 Group   1 Type C   : 11s6p2d1f contracted to 6s3p2d1f pattern {611111/411/11/1}
 Group   2 Type N   : 11s6p2d1f contracted to 6s3p2d1f pattern {611111/411/11/1}
 Group   3 Type Cu  : 17s11p7d1f contracted to 10s6p4d1f pattern {8111111111/611111/4111/1}
 Group   4 Type H   : 5s1p contracted to 3s1p pattern {311/1}
 Group   5 Type O   : 11s6p2d1f contracted to 6s3p2d1f pattern {611111/411/11/1}

Atom   0C    basis set group =>   1
Atom   1N    basis set group =>   2
Atom   2C    basis set group =>   1
Atom   3C    basis set group =>   1
Atom   4N    basis set group =>   2
Atom   5C    basis set group =>   1
Atom   6N    basis set group =>   2
Atom   7C    basis set group =>   1
Atom   8C    basis set group =>   1
Atom   9N    basis set group =>   2
Atom  10C    basis set group =>   1
Atom  11N    basis set group =>   2
Atom  12C    basis set group =>   1
Atom  13C    basis set group =>   1
Atom  14N    basis set group =>   2
Atom  15C    basis set group =>   1
Atom  16N    basis set group =>   2
Atom  17C    basis set group =>   1
Atom  18C    basis set group =>   1
Atom  19N    basis set group =>   2
Atom  20Cu   basis set group =>   3
Atom  21C    basis set group =>   1
Atom  22H    basis set group =>   4
Atom  23H    basis set group =>   4
Atom  24H    basis set group =>   4
Atom  25C    basis set group =>   1
Atom  26H    basis set group =>   4
Atom  27H    basis set group =>   4
Atom  28H    basis set group =>   4
Atom  29C    basis set group =>   1
Atom  30H    basis set group =>   4
Atom  31H    basis set group =>   4
Atom  32H    basis set group =>   4
Atom  33C    basis set group =>   1
Atom  34H    basis set group =>   4
Atom  35H    basis set group =>   4
Atom  36H    basis set group =>   4
Atom  37H    basis set group =>   4
Atom  38H    basis set group =>   4
Atom  39H    basis set group =>   4
Atom  40H    basis set group =>   4
Atom  41H    basis set group =>   4
Atom  42H    basis set group =>   4
Atom  43H    basis set group =>   4
Atom  44H    basis set group =>   4
Atom  45H    basis set group =>   4
Atom  46H    basis set group =>   4
Atom  47H    basis set group =>   4
Atom  48H    basis set group =>   4
Atom  49O    basis set group =>   5
Atom  50H    basis set group =>   4
Atom  51H    basis set group =>   4
---------------------------------
AUXILIARY/J BASIS SET INFORMATION
---------------------------------
There are 5 groups of distinct atoms

 Group   1 Type C   : 12s5p4d2f1g contracted to 6s4p3d1f1g pattern {711111/2111/211/2/1}
 Group   2 Type N   : 12s5p4d2f1g contracted to 6s4p3d1f1g pattern {711111/2111/211/2/1}
 Group   3 Type Cu  : 19s5p5d3f3g contracted to 8s5p4d3f3g pattern {121111111/11111/2111/111/111}
 Group   4 Type H   : 5s2p1d contracted to 3s1p1d pattern {311/2/1}
 Group   5 Type O   : 12s5p4d2f1g contracted to 6s4p3d1f1g pattern {711111/2111/211/2/1}

Atom   0C    basis set group =>   1
Atom   1N    basis set group =>   2
Atom   2C    basis set group =>   1
Atom   3C    basis set group =>   1
Atom   4N    basis set group =>   2
Atom   5C    basis set group =>   1
Atom   6N    basis set group =>   2
Atom   7C    basis set group =>   1
Atom   8C    basis set group =>   1
Atom   9N    basis set group =>   2
Atom  10C    basis set group =>   1
Atom  11N    basis set group =>   2
Atom  12C    basis set group =>   1
Atom  13C    basis set group =>   1
Atom  14N    basis set group =>   2
Atom  15C    basis set group =>   1
Atom  16N    basis set group =>   2
Atom  17C    basis set group =>   1
Atom  18C    basis set group =>   1
Atom  19N    basis set group =>   2
Atom  20Cu   basis set group =>   3
Atom  21C    basis set group =>   1
Atom  22H    basis set group =>   4
Atom  23H    basis set group =>   4
Atom  24H    basis set group =>   4
Atom  25C    basis set group =>   1
Atom  26H    basis set group =>   4
Atom  27H    basis set group =>   4
Atom  28H    basis set group =>   4
Atom  29C    basis set group =>   1
Atom  30H    basis set group =>   4
Atom  31H    basis set group =>   4
Atom  32H    basis set group =>   4
Atom  33C    basis set group =>   1
Atom  34H    basis set group =>   4
Atom  35H    basis set group =>   4
Atom  36H    basis set group =>   4
Atom  37H    basis set group =>   4
Atom  38H    basis set group =>   4
Atom  39H    basis set group =>   4
Atom  40H    basis set group =>   4
Atom  41H    basis set group =>   4
Atom  42H    basis set group =>   4
Atom  43H    basis set group =>   4
Atom  44H    basis set group =>   4
Atom  45H    basis set group =>   4
Atom  46H    basis set group =>   4
Atom  47H    basis set group =>   4
Atom  48H    basis set group =>   4
Atom  49O    basis set group =>   5
Atom  50H    basis set group =>   4
Atom  51H    basis set group =>   4
------------------------------------------------------------------------------
                           ORCA GTO INTEGRAL CALCULATION
                           -- RI-GTO INTEGRALS CHOSEN --
------------------------------------------------------------------------------
------------------------------------------------------------------------------
                   ___                                                        
                  /   \      - P O W E R E D   B Y -                         
                 /     \                                                     
                 |  |  |   _    _      __       _____    __    __             
                 |  |  |  | |  | |    /  \     |  _  \  |  |  /  |          
                  \  \/   | |  | |   /    \    | | | |  |  | /  /          
                 / \  \   | |__| |  /  /\  \   | |_| |  |  |/  /          
                |  |  |   |  __  | /  /__\  \  |    /   |      \           
                |  |  |   | |  | | |   __   |  |    \   |  |\   \          
                \     /   | |  | | |  |  |  |  | |\  \  |  | \   \       
                 \___/    |_|  |_| |__|  |__|  |_| \__\ |__|  \__/        
                                                                              
                      - O R C A' S   B I G   F R I E N D -                    
                                      &                                       
                       - I N T E G R A L  F E E D E R -                       
                                                                              
 v1 FN, 2020, v2 2021                                                         
------------------------------------------------------------------------------


Reading SHARK input file KXAS_Cu_II_H2O_APP_E2_opt.SHARKINP.tmp ... ok
----------------------
SHARK INTEGRAL PACKAGE
----------------------

Number of atoms                             ...     52
Number of basis functions                   ...   1011
Number of shells                            ...    425
Maximum angular momentum                    ...      3
Integral batch strategy                     ... SHARK/LIBINT Hybrid
RI-J (if used) integral strategy            ... SPLIT-RIJ (Revised 2003 algorithm where possible)
Printlevel                                  ...      1
Contraction scheme used                     ... SEGMENTED contraction
Coulomb Range Separation                    ... NOT USED
Exchange Range Separation                   ... NOT USED
Finite Nucleus Model                        ... NOT USED
Auxiliary Coulomb fitting basis             ... AVAILABLE
   # of basis functions in Aux-J            ...   1602
   # of shells in Aux-J                     ...    528
   Maximum angular momentum in Aux-J        ...      4
Auxiliary J/K fitting basis                 ... NOT available
Auxiliary Correlation fitting basis         ... NOT available
Auxiliary 'external' fitting basis          ... NOT available
Integral threshold                          ...     2.500000e-11
Primitive cut-off                           ...     2.500000e-12
Primitive pair pre-selection threshold      ...     2.500000e-12

Calculating pre-screening integrals         ... done (  0.4 sec) Dimension = 425
Organizing shell pair data                  ... done (  0.4 sec)
Shell pair information
Total number of shell pairs                 ...     90525
Shell pairs after pre-screening             ...     54312
Total number of primitive shell pairs       ...    240430
Primitive shell pairs kept                  ...     96911
          la=0 lb=0:  16074 shell pairs
          la=1 lb=0:  16041 shell pairs
          la=1 lb=1:   4046 shell pairs
          la=2 lb=0:   7486 shell pairs
          la=2 lb=1:   3855 shell pairs
          la=2 lb=2:    962 shell pairs
          la=3 lb=0:   3216 shell pairs
          la=3 lb=1:   1684 shell pairs
          la=3 lb=2:    789 shell pairs
          la=3 lb=3:    159 shell pairs

Calculating one electron integrals          ... done (  0.5 sec)
Calculating RI/J V-Matrix + Cholesky decomp.... done (  0.2 sec)
Calculating Nuclear repulsion               ... done (  0.0 sec) ENN=   3036.561599498994 Eh

SHARK setup successfully completed in   2.9 seconds

Maximum memory used throughout the entire GTOINT-calculation: 574.1 MB
------------------------------------------------------------------------------
                          ORCA RELATIVISTIC HAMILTONIAN
------------------------------------------------------------------------------

Relativistic Method            ... ZORA(MP)
Treatment of potential         ... Van Wuellen
Nucleus model                  ... Point Nucleus
Speed of light used            ... 137.03598950000000


            *************************************************
            *         ZERO ORDER REGULAR APPROXIMATION      *
            *                     ZORA(MP)                  *
            *            Programmed by FN according to      *
            *                   C. van Wuellen              *
            *       J. Chem. Phys. (1998) vol 109, 392-399  *
            *************************************************

Terms included in model potential: +V(e,N)+V(C)+V(Xa)+V(VWN-V)
Basis function cutoff value   ... 1.000000e-11
Loading the fitted atomic densities (ZORA)   ... done
Calculating the cutoffs                      ... done
Number of fit functions                      ... 432
Setting up the integration grid ... done

Maximum memory used throughout the entire REL-calculation: 86.8 MB
-------------------------------------------------------------------------------
                                 ORCA SCF
-------------------------------------------------------------------------------

------------
SCF SETTINGS
------------
Hamiltonian:
 Density Functional     Method          .... DFT(GTOs)
 Exchange Functional    Exchange        .... B88
   X-Alpha parameter    XAlpha          ....  0.666667
   Becke's b parameter  XBeta           ....  0.004200
 Correlation Functional Correlation     .... LYP
 LDA part of GGA corr.  LDAOpt          .... VWN-5
 Gradients option       PostSCFGGA      .... off
 Hybrid DFT is turned on
   Fraction HF Exchange ScalHFX         ....  0.200000
   Scaling of DF-GGA-X  ScalDFX         ....  0.720000
   Scaling of DF-GGA-C  ScalDFC         ....  0.810000
   Scaling of DF-LDA-C  ScalLDAC        ....  1.000000
   Perturbative correction              ....  0.000000
   Density functional embedding theory  .... OFF
   NL short-range parameter             ....  4.800000
 RI-approximation to the Coulomb term is turned on
   Number of AuxJ basis functions       .... 1602
   RIJ-COSX (HFX calculated with COS-X)).... on

Relativistic Settings:
 Scalar relativistic method             .... ZORA
 Speed of light used       Velit        ....       137.035989
Orbital energies will be scaled


General Settings:
 Integral files         IntName         .... KXAS_Cu_II_H2O_APP_E2_opt
 Hartree-Fock type      HFTyp           .... UHF
 Total Charge           Charge          ....    2
 Multiplicity           Mult            ....    2
 Number of Electrons    NEL             ....  213
 Basis Dimension        Dim             .... 1011
 Nuclear Repulsion      ENuc            ....   3036.5615994990 Eh

Convergence Acceleration:
 DIIS                   CNVDIIS         .... on
   Start iteration      DIISMaxIt       ....    12
   Startup error        DIISStart       ....  0.200000
   # of expansion vecs  DIISMaxEq       ....     5
   Bias factor          DIISBfac        ....   1.050
   Max. coefficient     DIISMaxC        ....  10.000
 Trust-Rad. Augm. Hess. CNVTRAH         .... auto
   Auto Start mean grad. ratio tolernc. ....  1.125000
   Auto Start start iteration           ....    20
   Auto Start num. interpolation iter.  ....    10
   Max. Number of Micro iterations      ....    16
   Max. Number of Macro iterations      .... Maxiter - #DIIS iter
   Number of Davidson start vectors     ....     2
   Converg. threshold I  (grad. norm)   ....   1.000e-05
   Converg. threshold II (energy diff.) ....   1.000e-08
   Grad. Scal. Fac. for Micro threshold ....   0.100
   Minimum threshold for Micro iter.    ....   0.010
   NR start threshold (gradient norm)   ....   0.001
   Initial trust radius                 ....   0.400
   Minimum AH scaling param. (alpha)    ....   1.000
   Maximum AH scaling param. (alpha)    .... 1000.000
   Orbital update algorithm             .... Taylor
   White noise on init. David. guess    .... on
   Maximum white noise                  ....   0.010
   Quad. conv. algorithm                .... NR
 SOSCF                  CNVSOSCF        .... off
 Level Shifting         CNVShift        .... on
   Level shift para.    LevelShift      ....    0.2500
   Turn off err/grad.   ShiftErr        ....    0.0010
 Zerner damping         CNVZerner       .... off
 Static damping         CNVDamp         .... on
   Fraction old density DampFac         ....    0.7000
   Max. Damping (<1)    DampMax         ....    0.9800
   Min. Damping (>=0)   DampMin         ....    0.0000
   Turn off err/grad.   DampErr         ....    0.1000
 Fernandez-Rico         CNVRico         .... off

SCF Procedure:
 Maximum # iterations   MaxIter         ....   125
 SCF integral mode      SCFMode         .... Direct
   Integral package                     .... SHARK and LIBINT hybrid scheme
 Reset frequency        DirectResetFreq ....    20
 Integral Threshold     Thresh          ....  2.500e-11 Eh
 Primitive CutOff       TCut            ....  2.500e-12 Eh

Convergence Tolerance:
 Convergence Check Mode ConvCheckMode   .... Total+1el-Energy
 Convergence forced     ConvForced      .... 1
 Energy Change          TolE            ....  1.000e-08 Eh
 1-El. energy change                    ....  1.000e-05 Eh
 DIIS Error             TolErr          ....  5.000e-07


Diagonalization of the overlap matrix:
Smallest eigenvalue                        ... 4.808e-05
Time for diagonalization                   ...    0.206 sec
Threshold for overlap eigenvalues          ... 1.000e-08
Number of eigenvalues below threshold      ... 0
Time for construction of square roots      ...    0.118 sec
Total time needed                          ...    0.325 sec

Time for model grid setup =    2.576 sec

------------------------------
INITIAL GUESS: MODEL POTENTIAL
------------------------------
Loading ZORA relativistic densities                ... done
Calculating cut-offs                               ... done
Initializing the effective Hamiltonian             ... done
Setting up the integral package (SHARK)            ... done
Starting the Coulomb interaction                   ... done (   7.0 sec)
Reading the grid                                   ... done
Mapping shells                                     ... done
Starting the XC term evaluation                    ... done (   2.8 sec)
  promolecular density results
     # of electrons  =    214.993946429
     EX              =   -218.048009772
     EC              =     -7.683508607
     EX+EC           =   -225.731518379
Transforming the Hamiltonian                       ... done (   0.1 sec)
Diagonalizing the Hamiltonian                      ... done (   0.2 sec)
Back transforming the eigenvectors                 ... done (   0.1 sec)
Now organizing SCF variables                       ... done
                      ------------------
                      INITIAL GUESS DONE (  12.8 sec)
                      ------------------
-------------------
DFT GRID GENERATION
-------------------

General Integration Accuracy     IntAcc      ... 4.388
Radial Grid Type                 RadialGrid  ... OptM3 with GC (2021)
Angular Grid (max. ang.)         AngularGrid ... 4 (Lebedev-302)
Angular grid pruning method      GridPruning ... 4 (adaptive)
Weight generation scheme         WeightScheme... Becke
Basis function cutoff            BFCut       ... 1.0000e-11
Integration weight cutoff        WCut        ... 1.0000e-14
Angular grids for H and He will be reduced by one unit
Partially contracted basis set               ... off
Rotationally invariant grid construction     ... off

Total number of grid points                  ...   243394
Total number of batches                      ...     3828
Average number of points per batch           ...       63
Average number of grid points per atom       ...     4681
Time for grid setup =    8.018 sec

--------------------
COSX GRID GENERATION
--------------------

GRIDX 1
-------
General Integration Accuracy     IntAcc      ... 3.816
Radial Grid Type                 RadialGrid  ... OptM3 with GC (2021)
Angular Grid (max. ang.)         AngularGrid ... 1 (Lebedev-50)
Angular grid pruning method      GridPruning ... 4 (adaptive)
Weight generation scheme         WeightScheme... Becke
Basis function cutoff            BFCut       ... 1.0000e-11
Integration weight cutoff        WCut        ... 1.0000e-14
Angular grids for H and He will be reduced by one unit
Partially contracted basis set               ... on
Rotationally invariant grid construction     ... off

Total number of grid points                  ...    30757
Total number of batches                      ...      509
Average number of points per batch           ...       60
Average number of grid points per atom       ...      591
UseSFitting                                  ... on

GRIDX 2
-------
General Integration Accuracy     IntAcc      ... 4.020
Radial Grid Type                 RadialGrid  ... OptM3 with GC (2021)
Angular Grid (max. ang.)         AngularGrid ... 2 (Lebedev-110)
Angular grid pruning method      GridPruning ... 4 (adaptive)
Weight generation scheme         WeightScheme... Becke
Basis function cutoff            BFCut       ... 1.0000e-11
Integration weight cutoff        WCut        ... 1.0000e-14
Angular grids for H and He will be reduced by one unit
Partially contracted basis set               ... on
Rotationally invariant grid construction     ... off

Total number of grid points                  ...    65484
Total number of batches                      ...     1048
Average number of points per batch           ...       62
Average number of grid points per atom       ...     1259
UseSFitting                                  ... on

GRIDX 3
-------
General Integration Accuracy     IntAcc      ... 4.338
Radial Grid Type                 RadialGrid  ... OptM3 with GC (2021)
Angular Grid (max. ang.)         AngularGrid ... 3 (Lebedev-194)
Angular grid pruning method      GridPruning ... 4 (adaptive)
Weight generation scheme         WeightScheme... Becke
Basis function cutoff            BFCut       ... 1.0000e-11
Integration weight cutoff        WCut        ... 1.0000e-14
Angular grids for H and He will be reduced by one unit
Partially contracted basis set               ... on
Rotationally invariant grid construction     ... off

Total number of grid points                  ...   142642
Total number of batches                      ...     2253
Average number of points per batch           ...       63
Average number of grid points per atom       ...     2743
UseSFitting                                  ... on

Time for X-Grid setup             =   12.402 sec

--------------
SCF ITERATIONS
--------------
ITER       Energy         Delta-E        Max-DP      RMS-DP      [F,P]     Damp
               ***  Starting incremental Fock matrix formation  ***
  0  -2801.0334073858   0.000000000000 0.09355368  0.00030747  0.1941891 0.7000
  1  -2801.3827301195  -0.349322733627 0.02207456  0.00017991  0.1351395 0.7000
                               ***Turning on DIIS***
  2  -2801.5094163891  -0.126686269647 0.06950750  0.00030947  0.0947006 0.0000
  3  -2801.7232707779  -0.213854388742 0.02949201  0.00013858  0.0368278 0.0000
  4  -2801.7699631493  -0.046692371436 0.01240962  0.00004367  0.0121674 0.0000
  5  -2801.7723485484  -0.002385399116 0.00641096  0.00001909  0.0088666 0.0000
  6  -2801.7727463845  -0.000397836122 0.00451748  0.00001162  0.0063082 0.0000
  7  -2801.7728879076  -0.000141523027 0.00204805  0.00000447  0.0024925 0.0000
  8  -2801.7729303779  -0.000042470369 0.00171431  0.00000375  0.0010972 0.0000
  9  -2801.7729452046  -0.000014826667 0.00171028  0.00000382  0.0004712 0.0000
               *** Restarting incremental Fock matrix formation ***
                                   *** Resetting DIIS ***
 10  -2801.7729696054  -0.000024400848 0.00092621  0.00000313  0.0001753 0.0000
 11  -2801.7729693810   0.000000224446 0.00028465  0.00000075  0.0003012 0.0000
 12  -2801.7729703113  -0.000000930264 0.00018302  0.00000037  0.0002125 0.0000
 13  -2801.7729705519  -0.000000240680 0.00008485  0.00000019  0.0000673 0.0000
 14  -2801.7729705062   0.000000045695 0.00005574  0.00000012  0.0000432 0.0000
 15  -2801.7729704649   0.000000041375 0.00002795  0.00000013  0.0000048 0.0000
 16  -2801.7729705532  -0.000000088321 0.00001314  0.00000006  0.0000051 0.0000
 17  -2801.7729705521   0.000000001069 0.00000805  0.00000007  0.0000018 0.0000
 18  -2801.7729705197   0.000000032414 0.00000470  0.00000004  0.0000022 0.0000
 19  -2801.7729706089  -0.000000089157 0.00001180  0.00000008  0.0000031 0.0000
 20  -2801.7729705656   0.000000043233 0.00000798  0.00000004  0.0000017 0.0000
                            ***DIIS convergence achieved***

               *****************************************************
               *                     SUCCESS                       *
               *           SCF CONVERGED AFTER  21 CYCLES          *
               *****************************************************

Old exchange energy                            =    -43.822720838 Eh
New exchange energy                            =    -43.822690675 Eh
Exchange energy change after final integration =      0.000030163 Eh
Total energy after final integration           =  -2801.772940337 Eh
Final COS-X integration done in                =   368.897 sec

----------------
TOTAL SCF ENERGY
----------------

Total Energy       :        -2801.77294034 Eh          -76240.11768 eV

Components:
Nuclear Repulsion  :         3036.56159950 Eh           82629.04190 eV
Electronic Energy  :        -5838.33453984 Eh         -158869.15958 eV
One Electron Energy:        -9856.57364678 Eh         -268211.00451 eV
Two Electron Energy:         4018.23910694 Eh          109341.84493 eV
Max COSX asymmetry :            0.00000053 Eh               0.00001 eV

Virial components:
Potential Energy   :        -5621.95348637 Eh         -152981.13177 eV
Kinetic Energy     :         2820.18054603 Eh           76741.01410 eV
Virial Ratio       :            1.99347290


DFT components:
N(Alpha)           :      106.999907823618 electrons
N(Beta)            :      105.999902532392 electrons
N(Total)           :      212.999810356010 electrons
E(X)               :     -174.519857679672 Eh       
E(C)               :       -8.974662599058 Eh       
E(XC)              :     -183.494520278731 Eh       
DFET-embed. en.    :        0.000000000000 Eh       

---------------
SCF CONVERGENCE
---------------

  Last Energy change         ...    6.5435e-08  Tolerance :   1.0000e-08
  Last MAX-Density change    ...    0.0000e+00  Tolerance :   1.0000e-07
  Last RMS-Density change    ...    0.0000e+00  Tolerance :   5.0000e-09
  Last DIIS Error            ...    5.1821e-07  Tolerance :   5.0000e-07

             **** THE GBW FILE WAS UPDATED (KXAS_Cu_II_H2O_APP_E2_opt.gbw) ****
             **** DENSITY KXAS_Cu_II_H2O_APP_E2_opt.scfp WAS UPDATED ****
             **** ENERGY FILE WAS UPDATED (KXAS_Cu_II_H2O_APP_E2_opt.en.tmp) ****
----------------------
UHF SPIN CONTAMINATION
----------------------

Warning: in a DFT calculation there is little theoretical justification to 
         calculate <S**2> as in Hartree-Fock theory. We will do it anyways
         but you should keep in mind that the values have only limited relevance

Expectation value of <S**2>     :     0.752510
Ideal value S*(S+1) for S=0.5   :     0.750000
Deviation                       :     0.002510

             **** THE GBW FILE WAS UPDATED (KXAS_Cu_II_H2O_APP_E2_opt.gbw) ****
             **** DENSITY KXAS_Cu_II_H2O_APP_E2_opt.scfp WAS UPDATED ****
----------------
ORBITAL ENERGIES
----------------
                 SPIN UP ORBITALS
  NO   OCC          E(Eh)            E(eV) 
   0   1.0000    -330.792733     -9001.3279 
   1   1.0000     -40.012363     -1088.7918 
   2   1.0000     -34.541600      -939.9247 
   3   1.0000     -34.541453      -939.9207 
   4   1.0000     -34.528861      -939.5781 
   5   1.0000     -19.392034      -527.6841 
   6   1.0000     -14.609190      -397.5363 
   7   1.0000     -14.608686      -397.5226 
   8   1.0000     -14.607319      -397.4853 
   9   1.0000     -14.604762      -397.4158 
  10   1.0000     -14.573470      -396.5643 
  11   1.0000     -14.572869      -396.5479 
  12   1.0000     -14.571702      -396.5162 
  13   1.0000     -14.569862      -396.4661 
  14   1.0000     -10.465744      -284.7874 
  15   1.0000     -10.464603      -284.7563 
  16   1.0000     -10.464335      -284.7490 
  17   1.0000     -10.461936      -284.6838 
  18   1.0000     -10.435080      -283.9530 
  19   1.0000     -10.434426      -283.9352 
  20   1.0000     -10.432407      -283.8802 
  21   1.0000     -10.428764      -283.7811 
  22   1.0000     -10.414544      -283.3942 
  23   1.0000     -10.413864      -283.3756 
  24   1.0000     -10.412021      -283.3255 
  25   1.0000     -10.408707      -283.2353 
  26   1.0000     -10.377074      -282.3745 
  27   1.0000     -10.377004      -282.3726 
  28   1.0000     -10.375079      -282.3202 
  29   1.0000     -10.372238      -282.2429 
  30   1.0000      -4.760866      -129.5498 
  31   1.0000      -3.165017       -86.1245 
  32   1.0000      -3.164392       -86.1075 
  33   1.0000      -3.116916       -84.8156 
  34   1.0000      -1.239422       -33.7264 
  35   1.0000      -1.237657       -33.6784 
  36   1.0000      -1.237246       -33.6672 
  37   1.0000      -1.236573       -33.6488 
  38   1.0000      -1.233672       -33.5699 
  39   1.0000      -1.103700       -30.0332 
  40   1.0000      -1.099241       -29.9119 
  41   1.0000      -1.097808       -29.8729 
  42   1.0000      -1.094106       -29.7721 
  43   1.0000      -0.985392       -26.8139 
  44   1.0000      -0.985002       -26.8033 
  45   1.0000      -0.983334       -26.7579 
  46   1.0000      -0.980458       -26.6796 
  47   1.0000      -0.898093       -24.4384 
  48   1.0000      -0.896783       -24.4027 
  49   1.0000      -0.895594       -24.3703 
  50   1.0000      -0.892789       -24.2940 
  51   1.0000      -0.841592       -22.9009 
  52   1.0000      -0.836849       -22.7718 
  53   1.0000      -0.835062       -22.7232 
  54   1.0000      -0.830892       -22.6097 
  55   1.0000      -0.809092       -22.0165 
  56   1.0000      -0.807787       -21.9810 
  57   1.0000      -0.806772       -21.9534 
  58   1.0000      -0.804157       -21.8822 
  59   1.0000      -0.755496       -20.5581 
  60   1.0000      -0.754518       -20.5315 
  61   1.0000      -0.751858       -20.4591 
  62   1.0000      -0.751253       -20.4426 
  63   1.0000      -0.748085       -20.3564 
  64   1.0000      -0.679864       -18.5000 
  65   1.0000      -0.677552       -18.4371 
  66   1.0000      -0.674085       -18.3428 
  67   1.0000      -0.671134       -18.2625 
  68   1.0000      -0.667824       -18.1724 
  69   1.0000      -0.661067       -17.9885 
  70   1.0000      -0.658264       -17.9123 
  71   1.0000      -0.657555       -17.8930 
  72   1.0000      -0.655888       -17.8476 
  73   1.0000      -0.643535       -17.5115 
  74   1.0000      -0.636762       -17.3272 
  75   1.0000      -0.635534       -17.2937 
  76   1.0000      -0.634820       -17.2743 
  77   1.0000      -0.633342       -17.2341 
  78   1.0000      -0.629994       -17.1430 
  79   1.0000      -0.618974       -16.8431 
  80   1.0000      -0.618417       -16.8280 
  81   1.0000      -0.611474       -16.6391 
  82   1.0000      -0.608107       -16.5474 
  83   1.0000      -0.603012       -16.4088 
  84   1.0000      -0.598682       -16.2910 
  85   1.0000      -0.597195       -16.2505 
  86   1.0000      -0.593238       -16.1428 
  87   1.0000      -0.589301       -16.0357 
  88   1.0000      -0.587803       -15.9949 
  89   1.0000      -0.582599       -15.8533 
  90   1.0000      -0.579020       -15.7559 
  91   1.0000      -0.576623       -15.6907 
  92   1.0000      -0.571464       -15.5503 
  93   1.0000      -0.571107       -15.5406 
  94   1.0000      -0.554480       -15.0882 
  95   1.0000      -0.553766       -15.0687 
  96   1.0000      -0.549686       -14.9577 
  97   1.0000      -0.533762       -14.5244 
  98   1.0000      -0.514778       -14.0078 
  99   1.0000      -0.511931       -13.9303 
 100   1.0000      -0.509287       -13.8584 
 101   1.0000      -0.504537       -13.7292 
 102   1.0000      -0.462724       -12.5914 
 103   1.0000      -0.447720       -12.1831 
 104   1.0000      -0.442151       -12.0315 
 105   1.0000      -0.439736       -11.9658 
 106   1.0000      -0.435936       -11.8624 
 107   0.0000      -0.213525        -5.8103 
 108   0.0000      -0.209449        -5.6994 
 109   0.0000      -0.206685        -5.6242 
 110   0.0000      -0.204493        -5.5645 
 111   0.0000      -0.197915        -5.3856 
 112   0.0000      -0.180614        -4.9148 
 113   0.0000      -0.172526        -4.6947 
 114   0.0000      -0.170844        -4.6489 
 115   0.0000      -0.169276        -4.6062 
 116   0.0000      -0.161235        -4.3874 
 117   0.0000      -0.157400        -4.2831 
 118   0.0000      -0.155511        -4.2317 
 119   0.0000      -0.151002        -4.1090 
 120   0.0000      -0.147026        -4.0008 
 121   0.0000      -0.132705        -3.6111 
 122   0.0000      -0.129229        -3.5165 
 123   0.0000      -0.123964        -3.3732 
 124   0.0000      -0.119395        -3.2489 
 125   0.0000      -0.114095        -3.1047 
 126   0.0000      -0.110017        -2.9937 
 127   0.0000      -0.104902        -2.8545 
 128   0.0000      -0.103053        -2.8042 
 129   0.0000      -0.101984        -2.7751 
 130   0.0000      -0.093925        -2.5558 
 131   0.0000      -0.090764        -2.4698 
 132   0.0000      -0.082518        -2.2454 
 133   0.0000      -0.081805        -2.2260 
 134   0.0000      -0.078386        -2.1330 
 135   0.0000      -0.072926        -1.9844 
 136   0.0000      -0.065877        -1.7926 
 137   0.0000      -0.060644        -1.6502 
 138   0.0000      -0.059524        -1.6197 
 139   0.0000      -0.056753        -1.5443 
 140   0.0000      -0.050575        -1.3762 
 141   0.0000      -0.048718        -1.3257 
 142   0.0000      -0.048121        -1.3095 
 143   0.0000      -0.046531        -1.2662 
 144   0.0000      -0.043964        -1.1963 
 145   0.0000      -0.043324        -1.1789 
 146   0.0000      -0.039854        -1.0845 
 147   0.0000      -0.037041        -1.0079 
 148   0.0000      -0.034165        -0.9297 
 149   0.0000      -0.033066        -0.8998 
 150   0.0000      -0.026424        -0.7190 
 151   0.0000      -0.024514        -0.6671 
 152   0.0000      -0.019648        -0.5346 
 153   0.0000      -0.013857        -0.3771 
 154   0.0000      -0.009622        -0.2618 
 155   0.0000      -0.003613        -0.0983 
 156   0.0000       0.001397         0.0380 
 157   0.0000       0.003010         0.0819 
 158   0.0000       0.008554         0.2328 
 159   0.0000       0.017330         0.4716 
 160   0.0000       0.023213         0.6317 
 161   0.0000       0.027155         0.7389 
 162   0.0000       0.030530         0.8308 
 163   0.0000       0.032507         0.8846 
 164   0.0000       0.037178         1.0117 
 165   0.0000       0.041995         1.1427 
 166   0.0000       0.043031         1.1709 
 167   0.0000       0.045358         1.2342 
 168   0.0000       0.047297         1.2870 
 169   0.0000       0.051215         1.3936 
 170   0.0000       0.055133         1.5002 
 171   0.0000       0.056228         1.5300 
 172   0.0000       0.062585         1.7030 
 173   0.0000       0.070592         1.9209 
 174   0.0000       0.071555         1.9471 
 175   0.0000       0.073092         1.9889 
 176   0.0000       0.080409         2.1880 
 177   0.0000       0.085173         2.3177 
 178   0.0000       0.088152         2.3987 
 179   0.0000       0.089576         2.4375 
 180   0.0000       0.095701         2.6042 
 181   0.0000       0.103743         2.8230 
 182   0.0000       0.107301         2.9198 
 183   0.0000       0.111660         3.0384 
 184   0.0000       0.112374         3.0578 
 185   0.0000       0.120352         3.2749 
 186   0.0000       0.121710         3.3119 
 187   0.0000       0.127434         3.4677 
 188   0.0000       0.131611         3.5813 
 189   0.0000       0.136492         3.7141 
 190   0.0000       0.140186         3.8147 
 191   0.0000       0.142061         3.8657 
 192   0.0000       0.149169         4.0591 
 193   0.0000       0.152247         4.1429 
 194   0.0000       0.152812         4.1582 
 195   0.0000       0.160942         4.3795 
 196   0.0000       0.163372         4.4456 
 197   0.0000       0.165201         4.4953 
 198   0.0000       0.170070         4.6279 
 199   0.0000       0.171945         4.6789 
 200   0.0000       0.177010         4.8167 
 201   0.0000       0.178768         4.8645 
 202   0.0000       0.188415         5.1270 
 203   0.0000       0.191843         5.2203 
 204   0.0000       0.198149         5.3919 
 205   0.0000       0.203413         5.5352 
 206   0.0000       0.207457         5.6452 
 207   0.0000       0.208077         5.6621 
 208   0.0000       0.210276         5.7219 
 209   0.0000       0.212536         5.7834 
 210   0.0000       0.218232         5.9384 
 211   0.0000       0.221388         6.0243 
 212   0.0000       0.222535         6.0555 
 213   0.0000       0.228373         6.2144 
 214   0.0000       0.229436         6.2433 
 215   0.0000       0.231674         6.3042 
 216   0.0000       0.233279         6.3478 
 217   0.0000       0.235800         6.4164 
 218   0.0000       0.241622         6.5749 
 219   0.0000       0.244872         6.6633 
 220   0.0000       0.247778         6.7424 
 221   0.0000       0.250564         6.8182 
 222   0.0000       0.254971         6.9381 
 223   0.0000       0.259692         7.0666 
 224   0.0000       0.264869         7.2075 
 225   0.0000       0.267155         7.2696 
 226   0.0000       0.269738         7.3400 
 227   0.0000       0.275075         7.4852 
 228   0.0000       0.277558         7.5527 
 229   0.0000       0.277923         7.5627 
 230   0.0000       0.284073         7.7300 
 231   0.0000       0.288682         7.8554 
 232   0.0000       0.288962         7.8630 
 233   0.0000       0.289476         7.8770 
 234   0.0000       0.290519         7.9054 
 235   0.0000       0.293566         7.9883 
 236   0.0000       0.296528         8.0689 
 237   0.0000       0.299329         8.1452 
 238   0.0000       0.301647         8.2082 
 239   0.0000       0.305558         8.3147 
 240   0.0000       0.307293         8.3619 
 241   0.0000       0.309784         8.4297 
 242   0.0000       0.310255         8.4425 
 243   0.0000       0.316955         8.6248 
 244   0.0000       0.317949         8.6518 
 245   0.0000       0.320067         8.7095 
 246   0.0000       0.323374         8.7995 
 247   0.0000       0.325871         8.8674 
 248   0.0000       0.330351         8.9893 
 249   0.0000       0.336784         9.1644 
 250   0.0000       0.339088         9.2270 
 251   0.0000       0.345210         9.3936 
 252   0.0000       0.348259         9.4766 
 253   0.0000       0.353413         9.6169 
 254   0.0000       0.360399         9.8070 
 255   0.0000       0.365054         9.9336 
 256   0.0000       0.368586        10.0297 
 257   0.0000       0.372726        10.1424 
 258   0.0000       0.376803        10.2533 
 259   0.0000       0.378526        10.3002 
 260   0.0000       0.380371        10.3504 
 261   0.0000       0.384082        10.4514 
 262   0.0000       0.387384        10.5412 
 263   0.0000       0.390288        10.6203 
 264   0.0000       0.397167        10.8075 
 265   0.0000       0.406621        11.0647 
 266   0.0000       0.414628        11.2826 
 267   0.0000       0.420948        11.4546 
 268   0.0000       0.424296        11.5457 
 269   0.0000       0.431903        11.7527 
 270   0.0000       0.437091        11.8938 
 271   0.0000       0.441203        12.0057 
 272   0.0000       0.443007        12.0548 
 273   0.0000       0.453149        12.3308 
 274   0.0000       0.454742        12.3742 
 275   0.0000       0.468245        12.7416 
 276   0.0000       0.475342        12.9347 
 277   0.0000       0.482765        13.1367 
 278   0.0000       0.485410        13.2087 
 279   0.0000       0.491614        13.3775 
 280   0.0000       0.498295        13.5593 
 281   0.0000       0.502741        13.6803 
 282   0.0000       0.506222        13.7750 
 283   0.0000       0.511121        13.9083 
 284   0.0000       0.515586        14.0298 
 285   0.0000       0.519399        14.1336 
 286   0.0000       0.524975        14.2853 
 287   0.0000       0.532671        14.4947 
 288   0.0000       0.535527        14.5724 
 289   0.0000       0.542708        14.7678 
 290   0.0000       0.547740        14.9048 
 291   0.0000       0.553261        15.0550 
 292   0.0000       0.559047        15.2124 
 293   0.0000       0.564278        15.3548 
 294   0.0000       0.568170        15.4607 
 295   0.0000       0.569909        15.5080 
 296   0.0000       0.572700        15.5840 
 297   0.0000       0.587431        15.9848 
 298   0.0000       0.594897        16.1880 
 299   0.0000       0.599489        16.3129 
 300   0.0000       0.606096        16.4927 
 301   0.0000       0.614752        16.7283 
 302   0.0000       0.618349        16.8261 
 303   0.0000       0.626462        17.0469 
 304   0.0000       0.632121        17.2009 
 305   0.0000       0.635284        17.2869 
 306   0.0000       0.643107        17.4998 
 307   0.0000       0.658291        17.9130 
 308   0.0000       0.660843        17.9825 
 309   0.0000       0.668920        18.2022 
 310   0.0000       0.675116        18.3709 
 311   0.0000       0.681842        18.5539 
 312   0.0000       0.684796        18.6342 
 313   0.0000       0.690350        18.7854 
 314   0.0000       0.697505        18.9801 
 315   0.0000       0.699436        19.0326 
 316   0.0000       0.708372        19.2758 
 317   0.0000       0.713512        19.4157 
 318   0.0000       0.728371        19.8200 
 319   0.0000       0.736351        20.0371 
 320   0.0000       0.738584        20.0979 
 321   0.0000       0.744641        20.2627 
 322   0.0000       0.749088        20.3837 
 323   0.0000       0.753890        20.5144 
 324   0.0000       0.758107        20.6292 
 325   0.0000       0.768664        20.9164 
 326   0.0000       0.773923        21.0595 
 327   0.0000       0.778298        21.1786 
 328   0.0000       0.786058        21.3897 
 329   0.0000       0.790116        21.5001 
 330   0.0000       0.805864        21.9287 
 331   0.0000       0.807331        21.9686 
 332   0.0000       0.808812        22.0089 
 333   0.0000       0.813912        22.1477 
 334   0.0000       0.821098        22.3432 
 335   0.0000       0.830962        22.6116 
 336   0.0000       0.839477        22.8433 
 337   0.0000       0.841258        22.8918 
 338   0.0000       0.847518        23.0621 
 339   0.0000       0.850392        23.1403 
 340   0.0000       0.863227        23.4896 
 341   0.0000       0.871828        23.7236 
 342   0.0000       0.879732        23.9387 
 343   0.0000       0.884367        24.0648 
 344   0.0000       0.888916        24.1886 
 345   0.0000       0.898371        24.4459 
 346   0.0000       0.901148        24.5215 
 347   0.0000       0.911795        24.8112 
 348   0.0000       0.918126        24.9835 
 349   0.0000       0.919073        25.0092 
 350   0.0000       0.926517        25.2118 
 351   0.0000       0.927841        25.2478 
 352   0.0000       0.936368        25.4799 
 353   0.0000       0.939522        25.5657 
 354   0.0000       0.942222        25.6392 
 355   0.0000       0.949433        25.8354 
 356   0.0000       0.957211        26.0470 
 357   0.0000       0.958418        26.0799 
 358   0.0000       0.964668        26.2500 
 359   0.0000       0.965195        26.2643 
 360   0.0000       0.973348        26.4862 
 361   0.0000       0.982953        26.7475 
 362   0.0000       0.986513        26.8444 
 363   0.0000       1.003592        27.3091 
 364   0.0000       1.011602        27.5271 
 365   0.0000       1.018715        27.7207 
 366   0.0000       1.022792        27.8316 
 367   0.0000       1.029652        28.0182 
 368   0.0000       1.049260        28.5518 
 369   0.0000       1.059454        28.8292 
 370   0.0000       1.070214        29.1220 
 371   0.0000       1.089315        29.6418 
 372   0.0000       1.093483        29.7552 
 373   0.0000       1.095358        29.8062 
 374   0.0000       1.104819        30.0637 
 375   0.0000       1.107069        30.1249 
 376   0.0000       1.122438        30.5431 
 377   0.0000       1.127909        30.6920 
 378   0.0000       1.129650        30.7394 
 379   0.0000       1.135843        30.9079 
 380   0.0000       1.146211        31.1900 
 381   0.0000       1.147816        31.2337 
 382   0.0000       1.149776        31.2870 
 383   0.0000       1.155540        31.4438 
 384   0.0000       1.159063        31.5397 
 385   0.0000       1.165384        31.7117 
 386   0.0000       1.170192        31.8425 
 387   0.0000       1.174892        31.9704 
 388   0.0000       1.181439        32.1486 
 389   0.0000       1.182704        32.1830 
 390   0.0000       1.190109        32.3845 
 391   0.0000       1.193527        32.4775 
 392   0.0000       1.195422        32.5291 
 393   0.0000       1.206340        32.8262 
 394   0.0000       1.206926        32.8421 
 395   0.0000       1.218897        33.1679 
 396   0.0000       1.227781        33.4096 
 397   0.0000       1.230749        33.4904 
 398   0.0000       1.237347        33.6699 
 399   0.0000       1.241213        33.7751 
 400   0.0000       1.251115        34.0446 
 401   0.0000       1.261761        34.3343 
 402   0.0000       1.263257        34.3750 
 403   0.0000       1.269076        34.5333 
 404   0.0000       1.280043        34.8317 
 405   0.0000       1.286282        35.0015 
 406   0.0000       1.290320        35.1114 
 407   0.0000       1.307804        35.5871 
 408   0.0000       1.311183        35.6791 
 409   0.0000       1.316808        35.8322 
 410   0.0000       1.320877        35.9429 
 411   0.0000       1.322904        35.9981 
 412   0.0000       1.324326        36.0367 
 413   0.0000       1.329267        36.1712 
 414   0.0000       1.333758        36.2934 
 415   0.0000       1.334580        36.3158 
 416   0.0000       1.341013        36.4908 
 417   0.0000       1.343643        36.5624 
 418   0.0000       1.345137        36.6030 
 419   0.0000       1.347012        36.6541 
 420   0.0000       1.350403        36.7463 
 421   0.0000       1.354777        36.8654 
 422   0.0000       1.357267        36.9331 
 423   0.0000       1.364685        37.1350 
 424   0.0000       1.369244        37.2590 
 425   0.0000       1.371158        37.3111 
 426   0.0000       1.377123        37.4734 
 427   0.0000       1.378444        37.5094 
 428   0.0000       1.385388        37.6983 
 429   0.0000       1.388392        37.7801 
 430   0.0000       1.402810        38.1724 
 431   0.0000       1.408071        38.3156 
 432   0.0000       1.413122        38.4530 
 433   0.0000       1.414101        38.4796 
 434   0.0000       1.419634        38.6302 
 435   0.0000       1.426598        38.8197 
 436   0.0000       1.429405        38.8961 
 437   0.0000       1.430967        38.9386 
 438   0.0000       1.433718        39.0134 
 439   0.0000       1.437069        39.1046 
 440   0.0000       1.441559        39.2268 
 441   0.0000       1.445968        39.3468 
 442   0.0000       1.453552        39.5532 
 443   0.0000       1.459065        39.7032 
 444   0.0000       1.465161        39.8691 
 445   0.0000       1.467452        39.9314 
 446   0.0000       1.471857        40.0513 
 447   0.0000       1.476259        40.1710 
 448   0.0000       1.479700        40.2647 
 449   0.0000       1.489459        40.5302 
 450   0.0000       1.499944        40.8156 
 451   0.0000       1.510379        41.0995 
 452   0.0000       1.516499        41.2660 
 453   0.0000       1.529830        41.6288 
 454   0.0000       1.539161        41.8827 
 455   0.0000       1.541718        41.9523 
 456   0.0000       1.544714        42.0338 
 457   0.0000       1.552371        42.2421 
 458   0.0000       1.555202        42.3192 
 459   0.0000       1.566300        42.6212 
 460   0.0000       1.571361        42.7589 
 461   0.0000       1.574044        42.8319 
 462   0.0000       1.579269        42.9741 
 463   0.0000       1.586363        43.1671 
 464   0.0000       1.591976        43.3199 
 465   0.0000       1.594766        43.3958 
 466   0.0000       1.603913        43.6447 
 467   0.0000       1.608294        43.7639 
 468   0.0000       1.628439        44.3121 
 469   0.0000       1.634805        44.4853 
 470   0.0000       1.649008        44.8718 
 471   0.0000       1.664995        45.3068 
 472   0.0000       1.672518        45.5115 
 473   0.0000       1.678494        45.6742 
 474   0.0000       1.688918        45.9578 
 475   0.0000       1.697990        46.2047 
 476   0.0000       1.699327        46.2410 
 477   0.0000       1.713231        46.6194 
 478   0.0000       1.716689        46.7135 
 479   0.0000       1.720889        46.8278 
 480   0.0000       1.726349        46.9763 
 481   0.0000       1.734935        47.2100 
 482   0.0000       1.739807        47.3425 
 483   0.0000       1.741747        47.3953 
 484   0.0000       1.747031        47.5391 
 485   0.0000       1.753466        47.7142 
 486   0.0000       1.776400        48.3383 
 487   0.0000       1.781766        48.4843 
 488   0.0000       1.785522        48.5865 
 489   0.0000       1.787982        48.6535 
 490   0.0000       1.792211        48.7685 
 491   0.0000       1.810788        49.2740 
 492   0.0000       1.813100        49.3370 
 493   0.0000       1.823679        49.6248 
 494   0.0000       1.833592        49.8946 
 495   0.0000       1.843847        50.1736 
 496   0.0000       1.846043        50.2334 
 497   0.0000       1.856165        50.5088 
 498   0.0000       1.859316        50.5946 
 499   0.0000       1.864747        50.7424 
 500   0.0000       1.874581        51.0099 
 501   0.0000       1.878940        51.1285 
 502   0.0000       1.881080        51.1868 
 503   0.0000       1.889726        51.4221 
 504   0.0000       1.894372        51.5485 
 505   0.0000       1.896992        51.6198 
 506   0.0000       1.899691        51.6932 
 507   0.0000       1.906624        51.8819 
 508   0.0000       1.913068        52.0572 
 509   0.0000       1.913808        52.0774 
 510   0.0000       1.923619        52.3443 
 511   0.0000       1.926887        52.4332 
 512   0.0000       1.936292        52.6892 
 513   0.0000       1.943128        52.8752 
 514   0.0000       1.949271        53.0424 
 515   0.0000       1.957072        53.2546 
 516   0.0000       1.960224        53.3404 
 517   0.0000       1.963250        53.4227 
 518   0.0000       1.969983        53.6060 
 519   0.0000       1.978088        53.8265 
 520   0.0000       1.988524        54.1105 
 521   0.0000       1.994804        54.2814 
 522   0.0000       2.008995        54.6675 
 523   0.0000       2.015572        54.8465 
 524   0.0000       2.019945        54.9655 
 525   0.0000       2.033249        55.3275 
 526   0.0000       2.045495        55.6607 
 527   0.0000       2.051232        55.8169 
 528   0.0000       2.054393        55.9029 
 529   0.0000       2.066422        56.2302 
 530   0.0000       2.070844        56.3505 
 531   0.0000       2.082702        56.6732 
 532   0.0000       2.093886        56.9775 
 533   0.0000       2.107851        57.3576 
 534   0.0000       2.117712        57.6259 
 535   0.0000       2.124008        57.7972 
 536   0.0000       2.130799        57.9820 
 537   0.0000       2.133880        58.0658 
 538   0.0000       2.138318        58.1866 
 539   0.0000       2.141502        58.2732 
 540   0.0000       2.144949        58.3670 
 541   0.0000       2.146203        58.4011 
 542   0.0000       2.152264        58.5661 
 543   0.0000       2.158616        58.7389 
 544   0.0000       2.161981        58.8305 
 545   0.0000       2.166250        58.9466 
 546   0.0000       2.172194        59.1084 
 547   0.0000       2.176477        59.2250 
 548   0.0000       2.181150        59.3521 
 549   0.0000       2.182011        59.3755 
 550   0.0000       2.187822        59.5337 
 551   0.0000       2.197536        59.7980 
 552   0.0000       2.203584        59.9626 
 553   0.0000       2.204977        60.0005 
 554   0.0000       2.220666        60.4274 
 555   0.0000       2.235315        60.8260 
 556   0.0000       2.246702        61.1359 
 557   0.0000       2.252099        61.2827 
 558   0.0000       2.256104        61.3917 
 559   0.0000       2.258597        61.4596 
 560   0.0000       2.262085        61.5544 
 561   0.0000       2.263027        61.5801 
 562   0.0000       2.271582        61.8129 
 563   0.0000       2.279596        62.0310 
 564   0.0000       2.285501        62.1916 
 565   0.0000       2.293041        62.3968 
 566   0.0000       2.310228        62.8645 
 567   0.0000       2.323820        63.2344 
 568   0.0000       2.328931        63.3734 
 569   0.0000       2.333112        63.4872 
 570   0.0000       2.335643        63.5561 
 571   0.0000       2.339890        63.6717 
 572   0.0000       2.367651        64.4271 
 573   0.0000       2.373205        64.5782 
 574   0.0000       2.376326        64.6631 
 575   0.0000       2.383168        64.8493 
 576   0.0000       2.385995        64.9262 
 577   0.0000       2.387485        64.9668 
 578   0.0000       2.389246        65.0147 
 579   0.0000       2.400500        65.3209 
 580   0.0000       2.406822        65.4929 
 581   0.0000       2.410271        65.5868 
 582   0.0000       2.423554        65.9482 
 583   0.0000       2.430831        66.1463 
 584   0.0000       2.443683        66.4960 
 585   0.0000       2.448758        66.6341 
 586   0.0000       2.454747        66.7971 
 587   0.0000       2.459108        66.9157 
 588   0.0000       2.466949        67.1291 
 589   0.0000       2.473466        67.3064 
 590   0.0000       2.480259        67.4913 
 591   0.0000       2.484188        67.5982 
 592   0.0000       2.490213        67.7621 
 593   0.0000       2.493197        67.8433 
 594   0.0000       2.509109        68.2763 
 595   0.0000       2.510343        68.3099 
 596   0.0000       2.516520        68.4780 
 597   0.0000       2.520449        68.5849 
 598   0.0000       2.525167        68.7133 
 599   0.0000       2.538535        69.0770 
 600   0.0000       2.541373        69.1543 
 601   0.0000       2.543735        69.2186 
 602   0.0000       2.557514        69.5935 
 603   0.0000       2.579496        70.1917 
 604   0.0000       2.587743        70.4161 
 605   0.0000       2.594679        70.6048 
 606   0.0000       2.598558        70.7104 
 607   0.0000       2.619053        71.2681 
 608   0.0000       2.622807        71.3702 
 609   0.0000       2.627064        71.4861 
 610   0.0000       2.630229        71.5722 
 611   0.0000       2.638267        71.7909 
 612   0.0000       2.642820        71.9148 
 613   0.0000       2.646018        72.0018 
 614   0.0000       2.648181        72.0607 
 615   0.0000       2.651324        72.1462 
 616   0.0000       2.659028        72.3558 
 617   0.0000       2.664155        72.4953 
 618   0.0000       2.668927        72.6252 
 619   0.0000       2.679759        72.9200 
 620   0.0000       2.682756        73.0015 
 621   0.0000       2.690303        73.2069 
 622   0.0000       2.695733        73.3546 
 623   0.0000       2.699547        73.4584 
 624   0.0000       2.703766        73.5732 
 625   0.0000       2.707141        73.6651 
[...]
  11   35082.6    285.0     -0.07104   0.00604  -0.00120  -0.00246
  12   35176.9    284.3     -0.86564   0.04861  -0.02868  -0.03996
  13   35257.7    283.6     -0.01794   0.00088  -0.00165   0.00045
  14   36591.3    273.3    -16.22586   0.03337   0.08054  -0.02462
  15   37448.1    267.0    -21.76943   0.14218  -0.02702   0.03116
  16   39994.8    250.0     -8.65270  -0.03556  -0.01096   0.26182
  17   40118.2    249.3      0.02238  -0.00041   0.00169  -0.00494
  18   40555.9    246.6      0.05469  -0.00145  -0.00149   0.00800
  19   40655.0    246.0      0.02875  -0.00142  -0.00026   0.00416
  20   40683.3    245.8      0.00901  -0.00165  -0.00006  -0.00063
  21   43738.3    228.6      8.27827  -0.00324  -0.05009  -0.01673
  22   44022.7    227.2      1.47695  -0.02960  -0.00742   0.01838
  23   44519.9    224.6      5.19544   0.01477   0.04574   0.01122
  24   44714.2    223.6     -1.39124   0.00946   0.01780   0.00687
  25   44779.4    223.3      1.42805   0.00073   0.02804   0.02579
  26   45227.7    221.1      2.47478  -0.00853   0.00512   0.07407
  27   45345.6    220.5      1.14536   0.07286  -0.00592   0.01122
  28   45410.8    220.2      0.62475  -0.03026   0.00919   0.06959
  29   45556.6    219.5      0.22044   0.02557  -0.01207  -0.00576
  30   45731.7    218.7      0.58661  -0.02588  -0.03720   0.05146
  31   45783.1    218.4      2.56576  -0.03432  -0.01918   0.11702
  32   45855.2    218.1      0.70164  -0.00512   0.00880   0.04127
  33   45906.5    217.8      1.35158  -0.01174  -0.03550   0.12063
  34   46030.1    217.2      0.44547   0.01376  -0.01376   0.02853
  35   46079.1    217.0     -0.28871  -0.00504   0.01224  -0.04848
  36   46165.8    216.6     -0.88802  -0.02224  -0.00841   0.08702
  37   46293.2    216.0      1.44436  -0.03817   0.00334   0.01627
  38   46321.4    215.9     -2.68189  -0.03800   0.01294   0.03197
  39   46481.2    215.1      0.29375   0.00126   0.00481  -0.02301
  40   46562.7    214.8      0.45654   0.04846  -0.01888   0.00596
  41   46721.5    214.0      1.86556  -0.09932   0.06839   0.03025
  42   46850.2    213.4      4.14197  -0.04425  -0.03190  -0.01887
  43   47082.6    212.4      6.57660  -0.00893  -0.05439  -0.08821
  44   47191.8    211.9      0.93241   0.02069  -0.01127  -0.04556
  45   47329.5    211.3     -0.56438  -0.03269  -0.01516   0.00962
  46   47413.1    210.9      9.24916   0.07701  -0.12459  -0.03360
  47   47618.9    210.0      1.50659   0.01239  -0.04822  -0.00771
  48   47720.5    209.6      1.07341   0.01128  -0.05296  -0.01615
  49   47738.8    209.5     -3.52639  -0.03801  -0.07805   0.00323
  50   47816.5    209.1     -2.84953   0.02409   0.08594  -0.01204
  51   47840.6    209.0      0.68892  -0.00400  -0.03419  -0.01227
  52   47942.9    208.6      2.81263   0.06720  -0.03134  -0.00303
  53   48131.0    207.8      0.30575   0.04448  -0.01765  -0.03118
  54   48209.9    207.4     -0.91927  -0.04074  -0.07363  -0.01485
  55   48273.9    207.2      1.43944   0.05560   0.01137   0.02423
  56   48317.6    207.0      1.83771  -0.06282   0.01786  -0.04158
  57   48378.2    206.7      5.19960  -0.10977  -0.00593  -0.04475
  58   48523.9    206.1      1.48443  -0.03629   0.00508  -0.01902
  59   48783.5    205.0     -0.43876  -0.00350   0.02061  -0.03784
  60   48863.2    204.7      1.63342  -0.06237   0.03443  -0.10083

------------------------------------------------------------------------------------------------------
                COMBINED ELECTRIC DIPOLE + MAGNETIC DIPOLE + ELECTRIC QUADRUPOLE SPECTRUM
------------------------------------------------------------------------------------------------------
State  Energy     Wavelength  D2        m2        Q2         D2+m2+Q2       D2/TOT    m2/TOT    Q2/TOT   
       (cm-1)       (nm)              (*1e6)    (*1e6)                                                   
------------------------------------------------------------------------------------------------------
   1   17162.5    582.7   0.00000   0.00130   0.00414   0.00000342543144   0.99841   0.00038   0.00121
   2   18802.6    531.8   0.00031   0.97378   0.00001   0.00031014157403   0.99686   0.00314   0.00000
   3   18922.1    528.5   0.00036   0.38988   0.00003   0.00036458252508   0.99893   0.00107   0.00000
   4   19781.3    505.5   0.00075   0.43094   0.00002   0.00075531147356   0.99943   0.00057   0.00000
   5   22014.3    454.3   0.00006   0.03931   0.00014   0.00005898594583   0.99933   0.00067   0.00000
   6   22650.7    441.5   0.00105   0.04571   0.00027   0.00105478799234   0.99996   0.00004   0.00000
   7   23519.3    425.2   0.00071   0.21197   0.00008   0.00071294245235   0.99970   0.00030   0.00000
   8   24568.0    407.0   0.00001   0.06890   0.00066   0.00000926487441   0.99249   0.00744   0.00007
   9   34633.3    288.7   0.00006   0.00005   0.00000   0.00005876832046   1.00000   0.00000   0.00000
  10   34934.2    286.3   0.00002   0.00002   0.00001   0.00001839859033   1.00000   0.00000   0.00000
  11   35082.6    285.0   0.00009   0.00025   0.00002   0.00008729389761   1.00000   0.00000   0.00000
  12   35176.9    284.3   0.00082   0.02721   0.00024   0.00082067219020   0.99997   0.00003   0.00000
  13   35257.7    283.6   0.00006   0.00002   0.00000   0.00005960187407   1.00000   0.00000   0.00000
  14   36591.3    273.3   0.03279   0.04857   0.00344   0.03279027797517   1.00000   0.00000   0.00000
  15   37448.1    267.0   0.02118   0.13276   0.00387   0.02117632990518   0.99999   0.00001   0.00000
  16   39994.8    250.0   0.00262   0.45242   0.00042   0.00262381067661   0.99983   0.00017   0.00000
  17   40118.2    249.3   0.00002   0.00018   0.00014   0.00002406173853   0.99999   0.00001   0.00001
  18   40555.9    246.6   0.00006   0.00045   0.00008   0.00005913038780   0.99999   0.00001   0.00000
  19   40655.0    246.0   0.00005   0.00013   0.00013   0.00005269089435   1.00000   0.00000   0.00000
  20   40683.3    245.8   0.00000   0.00002   0.00028   0.00000088721852   0.99966   0.00002   0.00032
  21   43738.3    228.6   0.16146   0.01980   0.04699   0.16145893707466   1.00000   0.00000   0.00000
  22   44022.7    227.2   0.15982   0.00904   0.04686   0.15982358036062   1.00000   0.00000   0.00000
  23   44519.9    224.6   0.01382   0.01755   0.57886   0.01382417997134   0.99996   0.00000   0.00004
  24   44714.2    223.6   0.00599   0.00328   0.01525   0.00599082973558   1.00000   0.00000   0.00000
  25   44779.4    223.3   0.00591   0.01052   0.22776   0.00590755211378   0.99996   0.00000   0.00004
  26   45227.7    221.1   0.00485   0.04086   0.01819   0.00485208369407   0.99999   0.00001   0.00000
  27   45345.6    220.5   0.03720   0.04012   0.36010   0.03720191874421   0.99999   0.00000   0.00001
  28   45410.8    220.2   0.01179   0.04292   0.02072   0.01178909635400   0.99999   0.00000   0.00000
  29   45556.6    219.5   0.01168   0.00614   0.05880   0.01168109116462   0.99999   0.00000   0.00001
  30   45731.7    218.7   0.00482   0.03478   0.02967   0.00481710766924   0.99999   0.00001   0.00001
  31   45783.1    218.4   0.02274   0.11286   0.00898   0.02274435766917   0.99999   0.00000   0.00000
  32   45855.2    218.1   0.01459   0.01340   0.03627   0.01458572164400   1.00000   0.00000   0.00000
  33   45906.5    217.8   0.01792   0.11843   0.01171   0.01791762074157   0.99999   0.00001   0.00000
  34   46030.1    217.2   0.00118   0.00888   0.00459   0.00118182428620   0.99999   0.00001   0.00000
  35   46079.1    217.0   0.00032   0.01882   0.00818   0.00031707879636   0.99991   0.00006   0.00003
  36   46165.8    216.6   0.01357   0.06077   0.02815   0.01357394879669   0.99999   0.00000   0.00000
  37   46293.2    216.0   0.00446   0.01298   0.07877   0.00446322386680   0.99998   0.00000   0.00002
  38   46321.4    215.9   0.02230   0.01974   0.02535   0.02230063657100   1.00000   0.00000   0.00000
  39   46481.2    215.1   0.01043   0.00417   0.01418   0.01043142818796   1.00000   0.00000   0.00000
  40   46562.7    214.8   0.00238   0.02064   0.01538   0.00238345611492   0.99998   0.00001   0.00001
  41   46721.5    214.0   0.01025   0.11681   0.06812   0.01024539915254   0.99998   0.00001   0.00001
  42   46850.2    213.4   0.01501   0.02524   0.05023   0.01500840833048   0.99999   0.00000   0.00000
  43   47082.6    212.4   0.00307   0.08240   0.01995   0.00307506901292   0.99997   0.00003   0.00001
  44   47191.8    211.9   0.00590   0.02008   0.07757   0.00589741768335   0.99998   0.00000   0.00001
  45   47329.5    211.3   0.00917   0.01065   0.15009   0.00916869993170   0.99998   0.00000   0.00002
  46   47413.1    210.9   0.01791   0.17319   0.22106   0.01790732323279   0.99998   0.00001   0.00001
  47   47618.9    210.0   0.00347   0.01955   0.07939   0.00346943408738   0.99997   0.00001   0.00002
  48   47720.5    209.6   0.00091   0.02465   0.03905   0.00091377740044   0.99993   0.00003   0.00004
  49   47738.8    209.5   0.00544   0.05828   0.12787   0.00544185819951   0.99997   0.00001   0.00002
  50   47816.5    209.1   0.00460   0.06274   0.14608   0.00459629805057   0.99995   0.00001   0.00003
  51   47840.6    209.0   0.00061   0.01033   0.01189   0.00061493738372   0.99996   0.00002   0.00002
  52   47942.9    208.6   0.00274   0.04271   0.21472   0.00273938198950   0.99991   0.00002   0.00008
  53   48131.0    207.8   0.00596   0.02540   0.12293   0.00596369086995   0.99998   0.00000   0.00002
  54   48209.9    207.4   0.01248   0.05693   0.04260   0.01248284315449   0.99999   0.00000   0.00000
  55   48273.9    207.2   0.00439   0.02973   0.00171   0.00438645850551   0.99999   0.00001   0.00000
  56   48317.6    207.0   0.00817   0.04685   0.12299   0.00816570536898   0.99998   0.00001   0.00002
  57   48378.2    206.7   0.01392   0.11024   0.06556   0.01391861829682   0.99999   0.00001   0.00000
  58   48523.9    206.1   0.00237   0.01338   0.00435   0.00237185787835   0.99999   0.00001   0.00000
  59   48783.5    205.0   0.00663   0.01475   0.13081   0.00663195960358   0.99998   0.00000   0.00002
  60   48863.2    204.7   0.01976   0.12047   0.69247   0.01976514695167   0.99996   0.00001   0.00004


------------------------------------------------------------------------------------------------------
      COMBINED ELECTRIC DIPOLE + MAGNETIC DIPOLE + ELECTRIC QUADRUPOLE SPECTRUM (origin adjusted)     
------------------------------------------------------------------------------------------------------
State Energy     Wavelength  D2        m2        Q2         D2+m2+Q2       D2/TOT    m2/TOT    Q2/TOT 
      (cm-1)        (nm)              (*1e6)    (*1e6)                                                 
------------------------------------------------------------------------------------------------------
   1   17162.5    582.7   0.00000   0.00026   0.00304   0.00000342329781   0.99903   0.00008   0.00089
   2   18802.6    531.8   0.00031   0.50208   0.15105   0.00030982091231   0.99789   0.00162   0.00049
   3   18922.1    528.5   0.00036   0.10790   0.06634   0.00036436686071   0.99952   0.00030   0.00018
   4   19781.3    505.5   0.00075   0.05801   0.09237   0.00075503089342   0.99980   0.00008   0.00012
   5   22014.3    454.3   0.00006   0.01100   0.00999   0.00005896747829   0.99964   0.00019   0.00017
   6   22650.7    441.5   0.00105   0.03541   0.00416   0.00105478157296   0.99996   0.00003   0.00000
   7   23519.3    425.2   0.00071   0.13561   0.03213   0.00071289813953   0.99976   0.00019   0.00005
   8   24568.0    407.0   0.00001   0.05975   0.00164   0.00000925669960   0.99337   0.00646   0.00018
   9   34633.3    288.7   0.00006   0.00003   0.00001   0.00005876830662   1.00000   0.00000   0.00000
  10   34934.2    286.3   0.00002   0.00000   0.00001   0.00001839856430   1.00000   0.00000   0.00000
  11   35082.6    285.0   0.00009   0.00018   0.00005   0.00008729385542   1.00000   0.00000   0.00000
  12   35176.9    284.3   0.00082   0.01446   0.00572   0.00082066491156   0.99998   0.00002   0.00001
  13   35257.7    283.6   0.00006   0.00002   0.00000   0.00005960186977   1.00000   0.00000   0.00000
  14   36591.3    273.3   0.03279   0.04614   0.00415   0.03279027624837   1.00000   0.00000   0.00000
  15   37448.1    267.0   0.02118   0.12047   0.00572   0.02117631946600   0.99999   0.00001   0.00000
  16   39994.8    250.0   0.00262   0.16829   0.08378   0.00262360990318   0.99990   0.00006   0.00003
  17   40118.2    249.3   0.00002   0.00014   0.00017   0.00002406172325   0.99999   0.00001   0.00001
  18   40555.9    246.6   0.00006   0.00041   0.00008   0.00005913034181   0.99999   0.00001   0.00000
  19   40655.0    246.0   0.00005   0.00012   0.00009   0.00005269084663   1.00000   0.00000   0.00000
  20   40683.3    245.8   0.00000   0.00001   0.00025   0.00000088718089   0.99970   0.00001   0.00028
  21   43738.3    228.6   0.16146   0.01315   0.05137   0.16145893480148   1.00000   0.00000   0.00000
  22   44022.7    227.2   0.15982   0.00226   0.04559   0.15982357230387   1.00000   0.00000   0.00000
  23   44519.9    224.6   0.01382   0.04977   0.07986   0.01382371319441   0.99999   0.00000   0.00001
  24   44714.2    223.6   0.00599   0.00156   0.01179   0.00599082456506   1.00000   0.00000   0.00000
  25   44779.4    223.3   0.00591   0.02842   0.08355   0.00590742580203   0.99998   0.00000   0.00001
  26   45227.7    221.1   0.00485   0.03839   0.01864   0.00485208167915   0.99999   0.00001   0.00000
  27   45345.6    220.5   0.03720   0.02423   0.13243   0.03720167518731   1.00000   0.00000   0.00000
  28   45410.8    220.2   0.01179   0.02492   0.03085   0.01178908848023   1.00000   0.00000   0.00000
  29   45556.6    219.5   0.01168   0.00576   0.02724   0.01168105923358   1.00000   0.00000   0.00000
  30   45731.7    218.7   0.00482   0.01069   0.01690   0.00481707080993   0.99999   0.00000   0.00000
  31   45783.1    218.4   0.02274   0.05141   0.02617   0.02274431340606   1.00000   0.00000   0.00000
  32   45855.2    218.1   0.01459   0.00632   0.00330   0.01458568159175   1.00000   0.00000   0.00000
  33   45906.5    217.8   0.01792   0.04290   0.02569   0.01791755918839   1.00000   0.00000   0.00000
  34   46030.1    217.2   0.00118   0.00658   0.00256   0.00118181995391   0.99999   0.00001   0.00000
  35   46079.1    217.0   0.00032   0.00486   0.00238   0.00031705903199   0.99998   0.00002   0.00001
  36   46165.8    216.6   0.01357   0.02280   0.01144   0.01357389412001   1.00000   0.00000   0.00000
  37   46293.2    216.0   0.00446   0.01820   0.01356   0.00446316388462   0.99999   0.00000   0.00000
  38   46321.4    215.9   0.02230   0.00705   0.00641   0.02230060494233   1.00000   0.00000   0.00000
  39   46481.2    215.1   0.01043   0.00112   0.00396   0.01043141492299   1.00000   0.00000   0.00000
  40   46562.7    214.8   0.00238   0.01416   0.01154   0.00238344578807   0.99999   0.00001   0.00000
  41   46721.5    214.0   0.01025   0.06724   0.09047   0.01024537191946   0.99998   0.00001   0.00001
  42   46850.2    213.4   0.01501   0.02141   0.00485   0.01500835912201   1.00000   0.00000   0.00000
  43   47082.6    212.4   0.00307   0.08114   0.00477   0.00307505257396   0.99997   0.00003   0.00000
  44   47191.8    211.9   0.00590   0.01123   0.07301   0.00589740427530   0.99999   0.00000   0.00001
  45   47329.5    211.3   0.00917   0.01119   0.14139   0.00916869178140   0.99998   0.00000   0.00002
  46   47413.1    210.9   0.01791   0.21446   0.08734   0.01790723078187   0.99998   0.00001   0.00000
  47   47618.9    210.0   0.00347   0.02321   0.00215   0.00346936051395   0.99999   0.00001   0.00000
  48   47720.5    209.6   0.00091   0.01846   0.01641   0.00091374857378   0.99996   0.00002   0.00002
  49   47738.8    209.5   0.00544   0.06775   0.09641   0.00544183621536   0.99997   0.00001   0.00002
  50   47816.5    209.1   0.00460   0.07695   0.08346   0.00459624964800   0.99997   0.00002   0.00002
  51   47840.6    209.0   0.00061   0.01120   0.01008   0.00061493644368   0.99997   0.00002   0.00002
  52   47942.9    208.6   0.00274   0.05082   0.11253   0.00273928791913   0.99994   0.00002   0.00004
  53   48131.0    207.8   0.00596   0.00142   0.06434   0.00596360829822   0.99999   0.00000   0.00001
  54   48209.9    207.4   0.01248   0.04424   0.02059   0.01248280845609   0.99999   0.00000   0.00000
  55   48273.9    207.2   0.00439   0.02145   0.00529   0.00438645380851   0.99999   0.00000   0.00000
  56   48317.6    207.0   0.00817   0.04505   0.05262   0.00816563319702   0.99999   0.00001   0.00001
  57   48378.2    206.7   0.01392   0.11455   0.02783   0.01391858487081   0.99999   0.00001   0.00000
  58   48523.9    206.1   0.00237   0.01151   0.00272   0.00237185438224   0.99999   0.00000   0.00000
  59   48783.5    205.0   0.00663   0.00361   0.03590   0.00663185354828   0.99999   0.00000   0.00001
  60   48863.2    204.7   0.01976   0.01714   0.33285   0.01976468399632   0.99998   0.00000   0.00002

Total run time:    11354.757 sec

           *** ORCA-CIS/TD-DFT FINISHED WITHOUT ERROR ***

Maximum memory used throughout the entire CIS-calculation: 999.6 MB

-----------------------
CIS/TD-DFT TOTAL ENERGY
-----------------------

    E(SCF)  =  -2801.772940337 Eh
    DE(CIS) =      0.078198174 Eh (Root  1)
    ----------------------------- ---------
    E(tot)  =  -2801.694742163 Eh


-------------------------   --------------------
FINAL SINGLE POINT ENERGY     -2801.694742163162
-------------------------   --------------------


                            ***************************************
                            *     ORCA property calculations      *
                            ***************************************

                                    ---------------------
                                    Active property flags
                                    ---------------------
   (+) Dipole Moment


------------------------------------------------------------------------------
                       ORCA ELECTRIC PROPERTIES CALCULATION
------------------------------------------------------------------------------

Dipole Moment Calculation                       ... on
Quadrupole Moment Calculation                   ... off
Polarizability Calculation                      ... off
GBWName                                         ... KXAS_Cu_II_H2O_APP_E2_opt.gbw
Electron density                                ... KXAS_Cu_II_H2O_APP_E2_opt.scfp
The origin for moment calculation is the CENTER OF MASS  = ( 0.019611, -0.009840  0.000042)

-------------
DIPOLE MOMENT
-------------
                                X             Y             Z
Electronic contribution:      4.68053      -2.61392       0.47931
Nuclear contribution   :     -4.21630       2.11566      -0.00905
                        -----------------------------------------
Total Dipole Moment    :      0.46422      -0.49826       0.47027
                        -----------------------------------------
Magnitude (a.u.)       :      0.82760
Magnitude (Debye)      :      2.10359



--------------------
Rotational spectrum 
--------------------
 
Rotational constants in cm-1:     0.006097     0.005976     0.003416 
Rotational constants in MHz :   182.792290   179.148532   102.397818 

 Dipole components along the rotational axes: 
x,y,z [a.u.] :     0.475727     0.488318     0.469201 
x,y,z [Debye]:     1.209201     1.241205     1.192613 

 

Timings for individual modules:

Sum of individual times         ...    14612.451 sec (= 243.541 min)
GTO integral calculation        ...        3.470 sec (=   0.058 min)   0.0 %
Relativistic integrals          ...       60.746 sec (=   1.012 min)   0.4 %
SCF iterations                  ...     3193.388 sec (=  53.223 min)  21.9 %
CIS module                      ...    11354.847 sec (= 189.247 min)  77.7 %
                             ****ORCA TERMINATED NORMALLY****
TOTAL RUN TIME: 0 days 4 hours 3 minutes 34 seconds 81 msec
