
                                 *****************
                                 * O   R   C   A *
                                 *****************

                                            #,                                       
                                            ###                                      
                                            ####                                     
                                            #####                                    
                                            ######                                   
                                           ########,                                 
                                     ,,################,,,,,                         
                               ,,#################################,,                 
                          ,,##########################################,,             
                       ,#########################################, ''#####,          
                    ,#############################################,,   '####,        
                  ,##################################################,,,,####,       
                ,###########''''           ''''###############################       
              ,#####''   ,,,,##########,,,,          '''####'''          '####       
            ,##' ,,,,###########################,,,                        '##       
           ' ,,###''''                  '''############,,,                           
         ,,##''                                '''############,,,,        ,,,,,,###''
      ,#''                                            '''#######################'''  
     '                                                          ''''####''''         
             ,#######,   #######,   ,#######,      ##                                
            ,#'     '#,  ##    ##  ,#'     '#,    #''#        ######   ,####,        
            ##       ##  ##   ,#'  ##            #'  '#       #        #'  '#        
            ##       ##  #######   ##           ,######,      #####,   #    #        
            '#,     ,#'  ##    ##  '#,     ,#' ,#      #,         ##   #,  ,#        
             '#######'   ##     ##  '#######'  #'      '#     #####' # '####'        



                  #######################################################
                  #                        -***-                        #
                  #          Department of theory and spectroscopy      #
                  #    Directorship and core code : Frank Neese         #
                  #        Max Planck Institute fuer Kohlenforschung    #
                  #                Kaiser Wilhelm Platz 1               #
                  #                 D-45470 Muelheim/Ruhr               #
                  #                      Germany                        #
                  #                                                     #
                  #                  All rights reserved                #
                  #                        -***-                        #
                  #######################################################


                         Program Version 5.0.4 -  RELEASE  -


 With contributions from (in alphabetic order):
   Daniel Aravena         : Magnetic Suceptibility
   Michael Atanasov       : Ab Initio Ligand Field Theory (pilot matlab implementation)
   Alexander A. Auer      : GIAO ZORA, VPT2 properties, NMR spectrum
   Ute Becker             : Parallelization
   Giovanni Bistoni       : ED, misc. LED, open-shell LED, HFLD
   Martin Brehm           : Molecular dynamics
   Dmytro Bykov           : SCF Hessian
   Vijay G. Chilkuri      : MRCI spin determinant printing, contributions to CSF-ICE
   Dipayan Datta          : RHF DLPNO-CCSD density
   Achintya Kumar Dutta   : EOM-CC, STEOM-CC
   Dmitry Ganyushin       : Spin-Orbit,Spin-Spin,Magnetic field MRCI
   Miquel Garcia          : C-PCM and meta-GGA Hessian, CC/C-PCM, Gaussian charge scheme
   Yang Guo               : DLPNO-NEVPT2, F12-NEVPT2, CIM, IAO-localization
   Andreas Hansen         : Spin unrestricted coupled pair/coupled cluster methods
   Benjamin Helmich-Paris : MC-RPA, TRAH-SCF, COSX integrals
   Lee Huntington         : MR-EOM, pCC
   Robert Izsak           : Overlap fitted RIJCOSX, COSX-SCS-MP3, EOM
   Marcus Kettner         : VPT2
   Christian Kollmar      : KDIIS, OOCD, Brueckner-CCSD(T), CCSD density, CASPT2, CASPT2-K
   Simone Kossmann        : Meta GGA functionals, TD-DFT gradient, OOMP2, MP2 Hessian
   Martin Krupicka        : Initial AUTO-CI
   Lucas Lang             : DCDCAS
   Marvin Lechner         : AUTO-CI (C++ implementation), FIC-MRCC
   Dagmar Lenk            : GEPOL surface, SMD
   Dimitrios Liakos       : Extrapolation schemes; Compound Job, initial MDCI parallelization
   Dimitrios Manganas     : Further ROCIS development; embedding schemes
   Dimitrios Pantazis     : SARC Basis sets
   Anastasios Papadopoulos: AUTO-CI, single reference methods and gradients
   Taras Petrenko         : DFT Hessian,TD-DFT gradient, ASA, ECA, R-Raman, ABS, FL, XAS/XES, NRVS
   Peter Pinski           : DLPNO-MP2, DLPNO-MP2 Gradient
   Christoph Reimann      : Effective Core Potentials
   Marius Retegan         : Local ZFS, SOC
   Christoph Riplinger    : Optimizer, TS searches, QM/MM, DLPNO-CCSD(T), (RO)-DLPNO pert. Triples
   Tobias Risthaus        : Range-separated hybrids, TD-DFT gradient, RPA, STAB
   Michael Roemelt        : Original ROCIS implementation
   Masaaki Saitow         : Open-shell DLPNO-CCSD energy and density
   Barbara Sandhoefer     : DKH picture change effects
   Avijit Sen             : IP-ROCIS
   Kantharuban Sivalingam : CASSCF convergence, NEVPT2, FIC-MRCI
   Bernardo de Souza      : ESD, SOC TD-DFT
   Georgi Stoychev        : AutoAux, RI-MP2 NMR, DLPNO-MP2 response
   Willem Van den Heuvel  : Paramagnetic NMR
   Boris Wezisla          : Elementary symmetry handling
   Frank Wennmohs         : Technical directorship


 We gratefully acknowledge several colleagues who have allowed us to
 interface, adapt or use parts of their codes:
   Stefan Grimme, W. Hujo, H. Kruse, P. Pracht,  : VdW corrections, initial TS optimization,
                  C. Bannwarth, S. Ehlert          DFT functionals, gCP, sTDA/sTD-DF
   Ed Valeev, F. Pavosevic, A. Kumar             : LibInt (2-el integral package), F12 methods
   Garnet Chan, S. Sharma, J. Yang, R. Olivares  : DMRG
   Ulf Ekstrom                                   : XCFun DFT Library
   Mihaly Kallay                                 : mrcc  (arbitrary order and MRCC methods)
   Jiri Pittner, Ondrej Demel                    : Mk-CCSD
   Frank Weinhold                                : gennbo (NPA and NBO analysis)
   Christopher J. Cramer and Donald G. Truhlar   : smd solvation model
   Lars Goerigk                                  : TD-DFT with DH, B97 family of functionals
   V. Asgeirsson, H. Jonsson                     : NEB implementation
   FAccTs GmbH                                   : IRC, NEB, NEB-TS, DLPNO-Multilevel, CI-OPT
                                                   MM, QMMM, 2- and 3-layer-ONIOM, Crystal-QMMM,
                                                   LR-CPCM, SF, NACMEs, symmetry and pop. for TD-DFT,
                                                   nearIR, NL-DFT gradient (VV10), updates on ESD,
                                                   ML-optimized integration grids
   S Lehtola, MJT Oliveira, MAL Marques          : LibXC Library
   Liviu Ungur et al                             : ANISO software


 Your calculation uses the libint2 library for the computation of 2-el integrals
 For citations please refer to: http://libint.valeyev.net

 Your ORCA version has been built with support for libXC version: 5.1.0
 For citations please refer to: https://tddft.org/programs/libxc/

 This ORCA versions uses:
   CBLAS   interface :  Fast vector & matrix operations
   LAPACKE interface :  Fast linear algebra routines
   SCALAPACK package :  Parallel linear algebra routines
   Shared memory     :  Shared parallel matrices
   BLAS/LAPACK       :  OpenBLAS 0.3.15  USE64BITINT DYNAMIC_ARCH NO_AFFINITY Zen SINGLE_THREADED
        Core in use  :  Zen
   Copyright (c) 2011-2014, The OpenBLAS Project


================================================================================

----- Orbital basis set information -----
Your calculation utilizes the basis: ZORA-def2-TZVP 
   Exponents from def2-TZVP [F. Weigend and R. Ahlrichs, Phys. Chem. Chem. Phys. 7, 3297 (2005)],
   recontracted for ZORA by D. A. Pantazis.

----- AuxJ basis set information -----
Your calculation utilizes the auxiliary basis: def2/J
   F. Weigend, Phys. Chem. Chem. Phys. 8, 1057 (2006).

================================================================================
                                        WARNINGS
                       Please study these warnings very carefully!
================================================================================

INFO   : Checking CIS options ...

WARNING: CIS/ROCIS methods need fully converged wavefunctions
  ===> : Setting SCFConvForced true
         You can overwrite this default with %scf ConvForced false 


INFO   : the flag for use of the SHARK integral package has been found!

================================================================================
                                       INPUT FILE
================================================================================
NAME = KXAS_Cu_I_APP_E2_opt.inp
|  1> ! UKS B3LYP ZORA-def2-TZVP def2/J RIJCOSX TightSCF ZORA
|  2> %tddft
|  3> doquad true
|  4> nroots 60
|  5> maxdim 10
|  6> end
|  7> * xyz 1 1
|  8>  C                  2.60145900   -3.42577500   -0.04678500
|  9>  N                  2.68472600   -3.07125700    1.29064400
| 10>  C                  1.69340000   -2.53773700   -0.58155100
| 11>  C                  1.85135400   -2.01370200    1.51410500
| 12>  N                  1.23237700   -1.66438000    0.39152900
| 13>  C                 -4.25623000   -0.55441700    0.96826600
| 14>  N                 -3.72369400   -1.65456100    1.62151700
| 15>  C                 -3.16299500    0.07847300    0.41586100
| 16>  C                 -2.37024100   -1.65233700    1.44872800
| 17>  N                 -1.99602900   -0.60855200    0.71834900
| 18>  C                  2.05214100    3.03032000    2.09548500
| 19>  N                  0.75648200    3.26709200    2.52666900
| 20>  C                  1.94677200    1.91710300    1.28895800
| 21>  C                 -0.06398900    2.32122800    1.98475700
| 22>  N                  0.63065800    1.48311500    1.22466800
| 23>  C                  0.15558800    1.53920300   -3.81212400
| 24>  N                 -0.70837400    0.47391700   -4.01267200
| 25>  C                  0.46054900    1.48621500   -2.46929700
| 26>  C                 -0.89188100   -0.16838000   -2.82254900
| 27>  N                 -0.19262800    0.42503500   -1.86148500
| 28>  Cu                -0.08837500   -0.10933200    0.12522100
| 29>  C                  0.58032700    2.46390100   -4.90228000
| 30>  H                  1.10992800    1.93228500   -5.70873200
| 31>  H                 -0.27674800    2.98876300   -5.35327000
| 32>  H                  1.26234900    3.22341700   -4.50003500
| 33>  C                  3.38372300   -4.54497000   -0.64627600
| 34>  H                  3.14696800   -5.51139200   -0.17360500
| 35>  H                  3.15037400   -4.63046600   -1.71494200
| 36>  H                  4.46931600   -4.38322900   -0.55290100
| 37>  C                  3.21404000    3.87651100    2.49312600
| 38>  H                  3.09013300    4.92232000    2.17004500
| 39>  H                  3.36634100    3.87919800    3.58410500
| 40>  H                  4.13063500    3.49094100    2.02932900
| 41>  C                 -5.71447100   -0.24241500    0.94721100
| 42>  H                 -6.30058400   -1.05042200    0.48136400
| 43>  H                 -6.11487200   -0.08027900    1.96052500
| 44>  H                 -5.89046900    0.67318000    0.36874200
| 45>  H                  1.35060400   -2.46881500   -1.60906400
| 46>  H                  1.73644200   -1.53467100    2.48133100
| 47>  H                 -3.14563300    0.98151300   -0.18655600
| 48>  H                 -1.71273800   -2.41364300    1.85630600
| 49>  H                  2.73788400    1.40085900    0.75385700
| 50>  H                 -1.13310600    2.27927900    2.16754900
| 51>  H                  1.10653700    2.14964700   -1.90295500
| 52>  H                 -1.53268900   -1.03619700   -2.70235300
| 53>  H                 -1.13422100    0.21573100   -4.89783300
| 54>  H                 -4.25395100   -2.34906800    2.13946200
| 55>  H                  3.27207300   -3.52090700    1.98666100
| 56>  H                  0.46639200    4.02039100    3.14321400
| 57> *
| 58> 
| 59>                          ****END OF INPUT****
================================================================================

                       ****************************
                       * Single Point Calculation *
                       ****************************

---------------------------------
CARTESIAN COORDINATES (ANGSTROEM)
---------------------------------
  C      2.601459   -3.425775   -0.046785
  N      2.684726   -3.071257    1.290644
  C      1.693400   -2.537737   -0.581551
  C      1.851354   -2.013702    1.514105
  N      1.232377   -1.664380    0.391529
  C     -4.256230   -0.554417    0.968266
  N     -3.723694   -1.654561    1.621517
  C     -3.162995    0.078473    0.415861
  C     -2.370241   -1.652337    1.448728
  N     -1.996029   -0.608552    0.718349
  C      2.052141    3.030320    2.095485
  N      0.756482    3.267092    2.526669
  C      1.946772    1.917103    1.288958
  C     -0.063989    2.321228    1.984757
  N      0.630658    1.483115    1.224668
  C      0.155588    1.539203   -3.812124
  N     -0.708374    0.473917   -4.012672
  C      0.460549    1.486215   -2.469297
  C     -0.891881   -0.168380   -2.822549
  N     -0.192628    0.425035   -1.861485
  Cu    -0.088375   -0.109332    0.125221
  C      0.580327    2.463901   -4.902280
  H      1.109928    1.932285   -5.708732
  H     -0.276748    2.988763   -5.353270
  H      1.262349    3.223417   -4.500035
  C      3.383723   -4.544970   -0.646276
  H      3.146968   -5.511392   -0.173605
  H      3.150374   -4.630466   -1.714942
  H      4.469316   -4.383229   -0.552901
  C      3.214040    3.876511    2.493126
  H      3.090133    4.922320    2.170045
  H      3.366341    3.879198    3.584105
  H      4.130635    3.490941    2.029329
  C     -5.714471   -0.242415    0.947211
  H     -6.300584   -1.050422    0.481364
  H     -6.114872   -0.080279    1.960525
  H     -5.890469    0.673180    0.368742
  H      1.350604   -2.468815   -1.609064
  H      1.736442   -1.534671    2.481331
  H     -3.145633    0.981513   -0.186556
  H     -1.712738   -2.413643    1.856306
  H      2.737884    1.400859    0.753857
  H     -1.133106    2.279279    2.167549
  H      1.106537    2.149647   -1.902955
  H     -1.532689   -1.036197   -2.702353
  H     -1.134221    0.215731   -4.897833
  H     -4.253951   -2.349068    2.139462
  H      3.272073   -3.520907    1.986661
  H      0.466392    4.020391    3.143214

----------------------------
CARTESIAN COORDINATES (A.U.)
----------------------------
  NO LB      ZA    FRAG     MASS         X           Y           Z
   0 C     6.0000    0    12.011    4.916045   -6.473777   -0.088411
   1 N     7.0000    0    14.007    5.073397   -5.803835    2.438964
   2 C     6.0000    0    12.011    3.200062   -4.795628   -1.098972
   3 C     6.0000    0    12.011    3.498552   -3.805345    2.861244
   4 N     7.0000    0    14.007    2.328855   -3.145222    0.739883
   5 C     6.0000    0    12.011   -8.043109   -1.047696    1.829758
   6 N     7.0000    0    14.007   -7.036762   -3.126667    3.064223
   7 C     6.0000    0    12.011   -5.977194    0.148292    0.785863
   8 C     6.0000    0    12.011   -4.479106   -3.122464    2.737699
   9 N     7.0000    0    14.007   -3.771948   -1.149997    1.357483
  10 C     6.0000    0    12.011    3.877984    5.726475    3.959893
  11 N     7.0000    0    14.007    1.429544    6.173909    4.774712
  12 C     6.0000    0    12.011    3.678866    3.622800    2.435778
  13 C     6.0000    0    12.011   -0.120922    4.386485    3.750647
  14 N     7.0000    0    14.007    1.191771    2.802681    2.314287
  15 C     6.0000    0    12.011    0.294019    2.908672   -7.203870
  16 N     7.0000    0    14.007   -1.338633    0.895573   -7.582851
  17 C     6.0000    0    12.011    0.870311    2.808539   -4.666295
  18 C     6.0000    0    12.011   -1.685411   -0.318192   -5.333845
  19 N     7.0000    0    14.007   -0.364014    0.803200   -3.517697
  20 Cu   29.0000    0    63.550   -0.167005   -0.206608    0.236633
  21 C     6.0000    0    12.011    1.096659    4.656098   -9.263967
  22 H     1.0000    0     1.008    2.097460    3.651489  -10.787940
  23 H     1.0000    0     1.008   -0.522978    5.647944  -10.116214
  24 H     1.0000    0     1.008    2.385494    6.091375   -8.503834
  25 C     6.0000    0    12.011    6.394310   -8.588749   -1.221285
  26 H     1.0000    0     1.008    5.946908  -10.415021   -0.328066
  27 H     1.0000    0     1.008    5.953344   -8.750313   -3.240771
  28 H     1.0000    0     1.008    8.445783   -8.283102   -1.044831
  29 C     6.0000    0    12.011    6.073655    7.325544    4.711325
  30 H     1.0000    0     1.008    5.839505    9.301837    4.100791
  31 H     1.0000    0     1.008    6.361463    7.330622    6.772977
  32 H     1.0000    0     1.008    7.805769    6.596922    3.834876
  33 C     6.0000    0    12.011  -10.798785   -0.458098    1.789969
  34 H     1.0000    0     1.008  -11.906378   -1.985010    0.909646
  35 H     1.0000    0     1.008  -11.555433   -0.151705    3.704855
  36 H     1.0000    0     1.008  -11.131373    1.272126    0.696821
  37 H     1.0000    0     1.008    2.552272   -4.665384   -3.040690
  38 H     1.0000    0     1.008    3.281400   -2.900108    4.689036
  39 H     1.0000    0     1.008   -5.944385    1.854791   -0.352540
  40 H     1.0000    0     1.008   -3.236606   -4.561124    3.507910
  41 H     1.0000    0     1.008    5.173851    2.647240    1.424583
  42 H     1.0000    0     1.008   -2.141260    4.307213    4.096074
  43 H     1.0000    0     1.008    2.091052    4.062244   -3.596064
  44 H     1.0000    0     1.008   -2.896362   -1.958129   -5.106707
  45 H     1.0000    0     1.008   -2.143367    0.407673   -9.255563
  46 H     1.0000    0     1.008   -8.038802   -4.439095    4.042997
  47 H     1.0000    0     1.008    6.183322   -6.653550    3.754245
  48 H     1.0000    0     1.008    0.881353    7.597438    5.939814

--------------------------------
INTERNAL COORDINATES (ANGSTROEM)
--------------------------------
 C      0   0   0     0.000000000000     0.00000000     0.00000000
 N      1   0   0     1.386121472186     0.00000000     0.00000000
 C      1   2   0     1.378099166127   104.42932282     0.00000000
 C      2   1   3     1.364868596946   108.63075553   359.97531278
 N      4   2   1     1.328659197081   110.47745151     0.00000000
 C      5   4   2     5.629338347354   114.80290882   136.62390496
 N      6   5   4     1.385874554580    61.12607786   317.21663277
 C      6   5   4     1.378718173286    43.64332600   128.89476562
 C      7   6   5     1.364439814688   108.67378513     5.89894811
 N      9   7   6     1.327770774950   110.51834609     0.02826718
 C      5   4   2     5.061194242037    83.33681180   219.73509338
 N     11   5   4     1.385897855587    96.41875046   256.49160312
 C     11   5   4     1.378709729051    16.60609237   136.63890553
 C     12  11   5     1.364367979718   108.67421045   345.15164180
 N     14  12  11     1.327668310723   110.51111178     0.00000000
 C     15  14  12     5.059457581590   120.91784499   250.80700632
 N     16  15  14     1.386176070903   101.18823783   260.27485851
 C     16  15  14     1.378039655305     7.56866009   144.08969984
 C     17  16  15     1.364775809570   108.62182120   352.98216023
 N     19  17  16     1.328435219471   110.47929243     0.00000000
 Cu     5   4   2     2.057542242257   127.38024847   181.97236954
 C     16  15  14     1.491277879425   135.06244678    71.96402442
 H     22  16  15     1.101570523825   111.89216599   129.21677950
 H     22  16  15     1.101566908893   111.90873209   250.21857882
 H     22  16  15     1.097187132063   109.77200702     9.73390020
 C      1   2   3     1.491282626735   123.25127042   179.86781498
 H     26   1   2     1.101563564371   111.91221095    60.56003651
 H     26   1   2     1.097182000113   109.78347521   180.08192297
 H     26   1   2     1.101540377542   111.88169809   299.56485691
 C     11   5   4     1.491364093561   137.92449736    57.97817261
 H     30  11   5     1.101567402246   111.89090246   141.54579515
 H     30  11   5     1.101561615622   111.91108031   262.50405895
 H     30  11   5     1.097232097659   109.79995579    22.04610287
 C      6   5   4     1.491393769301   173.27986868   184.98390029
 H     34   6   8     1.101552172267   111.88648257   119.53508946
 H     34   6   8     1.101550863961   111.91394835   240.48260027
 H     34   6   8     1.097231007578   109.80679980     0.00000000
 H      3   1   2     1.085376572840   128.05269714   179.44663982
 H      4   2   1     1.085449953605   123.53760336   180.65229403
 H      8   6   5     1.085674409081   128.08446106   171.98742555
 H      9   7   6     1.085364844985   123.51900163   180.41575437
 H     13  11   5     1.085679116627   128.06618170   243.07869871
 H     14  12  11     1.085441750420   123.51919694   179.82444855
 H     18  16  17     1.085442663494   128.07054463   180.29266218
 H     19  17  16     1.085443834000   123.51876298   179.50800994
 H     17  16  15     1.015635600954   125.64671909   172.91935276
 H      7   6   5     1.015765466101   125.62786953   186.13712202
 H      2   1   3     1.015677746728   125.64142919   180.27557240
 H     12  11   5     1.015745700717   125.62984661   165.19595569

---------------------------
INTERNAL COORDINATES (A.U.)
---------------------------
 C      0   0   0     0.000000000000     0.00000000     0.00000000
 N      1   0   0     2.619389970779     0.00000000     0.00000000
 C      1   2   0     2.604230009366   104.42932282     0.00000000
 C      2   1   3     2.579227857018   108.63075553   359.97531278
 N      4   2   1     2.510802007800   110.47745151     0.00000000
 C      5   4   2    10.637907791679   114.80290882   136.62390496
 N      6   5   4     2.618923364127    61.12607786   317.21663277
 C      6   5   4     2.605399763371    43.64332600   128.89476562
 C      7   6   5     2.578417575979   108.67378513     5.89894811
 N      9   7   6     2.509123133279   110.51834609     0.02826718
 C      5   4   2     9.564271028030    83.33681180   219.73509338
 N     11   5   4     2.618967396648    96.41875046   256.49160312
 C     11   5   4     2.605383806079    16.60609237   136.63890553
 C     12  11   5     2.578281827559   108.67421045   345.15164180
 N     14  12  11     2.508929503953   110.51111178     0.00000000
 C     15  14  12     9.560989215397   120.91784499   250.80700632
 N     16  15  14     2.619493147402   101.18823783   260.27485851
 C     16  15  14     2.604117550210     7.56866009   144.08969984
 C     17  16  15     2.579052514288   108.62182120   352.98216023
 N     19  17  16     2.510378751455   110.47929243     0.00000000
 Cu     5   4   2     3.888191346840   127.38024847   181.97236954
 C     16  15  14     2.818106781687   135.06244678    71.96402442
 H     22  16  15     2.081666607230   111.89216599   129.21677950
 H     22  16  15     2.081659775999   111.90873209   250.21857882
 H     22  16  15     2.073383197262   109.77200702     9.73390020
 C      1   2   3     2.818115752804   123.25127042   179.86781498
 H     26   1   2     2.081653455768   111.91221095    60.56003651
 H     26   1   2     2.073373499282   109.78347521   180.08192297
 H     26   1   2     2.081609639010   111.88169809   299.56485691
 C     11   5   4     2.818269702794   137.92449736    57.97817261
 H     30  11   5     2.081660708300   111.89090246   141.54579515
 H     30  11   5     2.081649773165   111.91108031   262.50405895
 H     30  11   5     2.073468169924   109.79995579    22.04610287
 C      6   5   4     2.818325781816   173.27986868   184.98390029
 H     34   6   8     2.081631927811   111.88648257   119.53508946
 H     34   6   8     2.081629455470   111.91394835   240.48260027
 H     34   6   8     2.073466109968   109.80679980     0.00000000
 H      3   1   2     2.051064474841   128.05269714   179.44663982
 H      4   2   1     2.051203144391   123.53760336   180.65229403
 H      8   6   5     2.051627303770   128.08446106   171.98742555
 H      9   7   6     2.051042312407   123.51900163   180.41575437
 H     13  11   5     2.051636199743   128.06618170   243.07869871
 H     14  12  11     2.051187642617   123.51919694   179.82444855
 H     18  16  17     2.051189368077   128.07054463   180.29266218
 H     19  17  16     2.051191580014   123.51876298   179.50800994
 H     17  16  15     1.919273137664   125.64671909   172.91935276
 H      7   6   5     1.919518547225   125.62786953   186.13712202
 H      2   1   3     1.919352781634   125.64142919   180.27557240
 H     12  11   5     1.919481196064   125.62984661   165.19595569

---------------------
BASIS SET INFORMATION
---------------------
There are 4 groups of distinct atoms

 Group   1 Type C   : 11s6p2d1f contracted to 6s3p2d1f pattern {611111/411/11/1}
 Group   2 Type N   : 11s6p2d1f contracted to 6s3p2d1f pattern {611111/411/11/1}
 Group   3 Type Cu  : 17s11p7d1f contracted to 10s6p4d1f pattern {8111111111/611111/4111/1}
 Group   4 Type H   : 5s1p contracted to 3s1p pattern {311/1}

Atom   0C    basis set group =>   1
Atom   1N    basis set group =>   2
Atom   2C    basis set group =>   1
Atom   3C    basis set group =>   1
Atom   4N    basis set group =>   2
Atom   5C    basis set group =>   1
Atom   6N    basis set group =>   2
Atom   7C    basis set group =>   1
Atom   8C    basis set group =>   1
Atom   9N    basis set group =>   2
Atom  10C    basis set group =>   1
Atom  11N    basis set group =>   2
Atom  12C    basis set group =>   1
Atom  13C    basis set group =>   1
Atom  14N    basis set group =>   2
Atom  15C    basis set group =>   1
Atom  16N    basis set group =>   2
Atom  17C    basis set group =>   1
Atom  18C    basis set group =>   1
Atom  19N    basis set group =>   2
Atom  20Cu   basis set group =>   3
Atom  21C    basis set group =>   1
Atom  22H    basis set group =>   4
Atom  23H    basis set group =>   4
Atom  24H    basis set group =>   4
Atom  25C    basis set group =>   1
Atom  26H    basis set group =>   4
Atom  27H    basis set group =>   4
Atom  28H    basis set group =>   4
Atom  29C    basis set group =>   1
Atom  30H    basis set group =>   4
Atom  31H    basis set group =>   4
Atom  32H    basis set group =>   4
Atom  33C    basis set group =>   1
Atom  34H    basis set group =>   4
Atom  35H    basis set group =>   4
Atom  36H    basis set group =>   4
Atom  37H    basis set group =>   4
Atom  38H    basis set group =>   4
Atom  39H    basis set group =>   4
Atom  40H    basis set group =>   4
Atom  41H    basis set group =>   4
Atom  42H    basis set group =>   4
Atom  43H    basis set group =>   4
Atom  44H    basis set group =>   4
Atom  45H    basis set group =>   4
Atom  46H    basis set group =>   4
Atom  47H    basis set group =>   4
Atom  48H    basis set group =>   4
---------------------------------
AUXILIARY/J BASIS SET INFORMATION
---------------------------------
There are 4 groups of distinct atoms

 Group   1 Type C   : 12s5p4d2f1g contracted to 6s4p3d1f1g pattern {711111/2111/211/2/1}
 Group   2 Type N   : 12s5p4d2f1g contracted to 6s4p3d1f1g pattern {711111/2111/211/2/1}
 Group   3 Type Cu  : 19s5p5d3f3g contracted to 8s5p4d3f3g pattern {121111111/11111/2111/111/111}
 Group   4 Type H   : 5s2p1d contracted to 3s1p1d pattern {311/2/1}

Atom   0C    basis set group =>   1
Atom   1N    basis set group =>   2
Atom   2C    basis set group =>   1
Atom   3C    basis set group =>   1
Atom   4N    basis set group =>   2
Atom   5C    basis set group =>   1
Atom   6N    basis set group =>   2
Atom   7C    basis set group =>   1
Atom   8C    basis set group =>   1
Atom   9N    basis set group =>   2
Atom  10C    basis set group =>   1
Atom  11N    basis set group =>   2
Atom  12C    basis set group =>   1
Atom  13C    basis set group =>   1
Atom  14N    basis set group =>   2
Atom  15C    basis set group =>   1
Atom  16N    basis set group =>   2
Atom  17C    basis set group =>   1
Atom  18C    basis set group =>   1
Atom  19N    basis set group =>   2
Atom  20Cu   basis set group =>   3
Atom  21C    basis set group =>   1
Atom  22H    basis set group =>   4
Atom  23H    basis set group =>   4
Atom  24H    basis set group =>   4
Atom  25C    basis set group =>   1
Atom  26H    basis set group =>   4
Atom  27H    basis set group =>   4
Atom  28H    basis set group =>   4
Atom  29C    basis set group =>   1
Atom  30H    basis set group =>   4
Atom  31H    basis set group =>   4
Atom  32H    basis set group =>   4
Atom  33C    basis set group =>   1
Atom  34H    basis set group =>   4
Atom  35H    basis set group =>   4
Atom  36H    basis set group =>   4
Atom  37H    basis set group =>   4
Atom  38H    basis set group =>   4
Atom  39H    basis set group =>   4
Atom  40H    basis set group =>   4
Atom  41H    basis set group =>   4
Atom  42H    basis set group =>   4
Atom  43H    basis set group =>   4
Atom  44H    basis set group =>   4
Atom  45H    basis set group =>   4
Atom  46H    basis set group =>   4
Atom  47H    basis set group =>   4
Atom  48H    basis set group =>   4
------------------------------------------------------------------------------
                           ORCA GTO INTEGRAL CALCULATION
                           -- RI-GTO INTEGRALS CHOSEN --
------------------------------------------------------------------------------
------------------------------------------------------------------------------
                   ___                                                        
                  /   \      - P O W E R E D   B Y -                         
                 /     \                                                     
                 |  |  |   _    _      __       _____    __    __             
                 |  |  |  | |  | |    /  \     |  _  \  |  |  /  |          
                  \  \/   | |  | |   /    \    | | | |  |  | /  /          
                 / \  \   | |__| |  /  /\  \   | |_| |  |  |/  /          
                |  |  |   |  __  | /  /__\  \  |    /   |      \           
                |  |  |   | |  | | |   __   |  |    \   |  |\   \          
                \     /   | |  | | |  |  |  |  | |\  \  |  | \   \       
                 \___/    |_|  |_| |__|  |__|  |_| \__\ |__|  \__/        
                                                                              
                      - O R C A' S   B I G   F R I E N D -                    
                                      &                                       
                       - I N T E G R A L  F E E D E R -                       
                                                                              
 v1 FN, 2020, v2 2021                                                         
------------------------------------------------------------------------------


Reading SHARK input file KXAS_Cu_I_APP_E2_opt.SHARKINP.tmp ... ok
----------------------
SHARK INTEGRAL PACKAGE
----------------------

Number of atoms                             ...     49
Number of basis functions                   ...    967
Number of shells                            ...    405
Maximum angular momentum                    ...      3
Integral batch strategy                     ... SHARK/LIBINT Hybrid
RI-J (if used) integral strategy            ... SPLIT-RIJ (Revised 2003 algorithm where possible)
Printlevel                                  ...      1
Contraction scheme used                     ... SEGMENTED contraction
Coulomb Range Separation                    ... NOT USED
Exchange Range Separation                   ... NOT USED
Finite Nucleus Model                        ... NOT USED
Auxiliary Coulomb fitting basis             ... AVAILABLE
   # of basis functions in Aux-J            ...   1531
   # of shells in Aux-J                     ...    503
   Maximum angular momentum in Aux-J        ...      4
Auxiliary J/K fitting basis                 ... NOT available
Auxiliary Correlation fitting basis         ... NOT available
Auxiliary 'external' fitting basis          ... NOT available
Integral threshold                          ...     2.500000e-11
Primitive cut-off                           ...     2.500000e-12
Primitive pair pre-selection threshold      ...     2.500000e-12

Calculating pre-screening integrals         ... done (  0.4 sec) Dimension = 405
Organizing shell pair data                  ... done (  0.3 sec)
Shell pair information
Total number of shell pairs                 ...     82215
Shell pairs after pre-screening             ...     48060
Total number of primitive shell pairs       ...    218755
Primitive shell pairs kept                  ...     86080
          la=0 lb=0:  14154 shell pairs
          la=1 lb=0:  14235 shell pairs
          la=1 lb=1:   3613 shell pairs
          la=2 lb=0:   6635 shell pairs
          la=2 lb=1:   3418 shell pairs
          la=2 lb=2:    834 shell pairs
          la=3 lb=0:   2826 shell pairs
          la=3 lb=1:   1509 shell pairs
          la=3 lb=2:    692 shell pairs
          la=3 lb=3:    144 shell pairs

Calculating one electron integrals          ... done (  0.4 sec)
Calculating RI/J V-Matrix + Cholesky decomp.... done (  0.1 sec)
Calculating Nuclear repulsion               ... done (  0.0 sec) ENN=   2711.191627496724 Eh

SHARK setup successfully completed in   2.0 seconds

Maximum memory used throughout the entire GTOINT-calculation: 505.3 MB
------------------------------------------------------------------------------
                          ORCA RELATIVISTIC HAMILTONIAN
------------------------------------------------------------------------------

Relativistic Method            ... ZORA(MP)
Treatment of potential         ... Van Wuellen
Nucleus model                  ... Point Nucleus
Speed of light used            ... 137.03598950000000


            *************************************************
            *         ZERO ORDER REGULAR APPROXIMATION      *
            *                     ZORA(MP)                  *
            *            Programmed by FN according to      *
            *                   C. van Wuellen              *
            *       J. Chem. Phys. (1998) vol 109, 392-399  *
            *************************************************

Terms included in model potential: +V(e,N)+V(C)+V(Xa)+V(VWN-V)
Basis function cutoff value   ... 1.000000e-11
Loading the fitted atomic densities (ZORA)   ... done
Calculating the cutoffs                      ... done
Number of fit functions                      ... 411
Setting up the integration grid ... done

Maximum memory used throughout the entire REL-calculation: 82.3 MB
-------------------------------------------------------------------------------
                                 ORCA SCF
-------------------------------------------------------------------------------

------------
SCF SETTINGS
------------
Hamiltonian:
 Density Functional     Method          .... DFT(GTOs)
 Exchange Functional    Exchange        .... B88
   X-Alpha parameter    XAlpha          ....  0.666667
   Becke's b parameter  XBeta           ....  0.004200
 Correlation Functional Correlation     .... LYP
 LDA part of GGA corr.  LDAOpt          .... VWN-5
 Gradients option       PostSCFGGA      .... off
 Hybrid DFT is turned on
   Fraction HF Exchange ScalHFX         ....  0.200000
   Scaling of DF-GGA-X  ScalDFX         ....  0.720000
   Scaling of DF-GGA-C  ScalDFC         ....  0.810000
   Scaling of DF-LDA-C  ScalLDAC        ....  1.000000
   Perturbative correction              ....  0.000000
   Density functional embedding theory  .... OFF
   NL short-range parameter             ....  4.800000
 RI-approximation to the Coulomb term is turned on
   Number of AuxJ basis functions       .... 1531
   RIJ-COSX (HFX calculated with COS-X)).... on

Relativistic Settings:
 Scalar relativistic method             .... ZORA
 Speed of light used       Velit        ....       137.035989
Orbital energies will be scaled


General Settings:
 Integral files         IntName         .... KXAS_Cu_I_APP_E2_opt
 Hartree-Fock type      HFTyp           .... UHF
 Total Charge           Charge          ....    1
 Multiplicity           Mult            ....    1
 Number of Electrons    NEL             ....  204
 Basis Dimension        Dim             ....  967
 Nuclear Repulsion      ENuc            ....   2711.1916274967 Eh

Convergence Acceleration:
 DIIS                   CNVDIIS         .... on
   Start iteration      DIISMaxIt       ....    12
   Startup error        DIISStart       ....  0.200000
   # of expansion vecs  DIISMaxEq       ....     5
   Bias factor          DIISBfac        ....   1.050
   Max. coefficient     DIISMaxC        ....  10.000
 Trust-Rad. Augm. Hess. CNVTRAH         .... auto
   Auto Start mean grad. ratio tolernc. ....  1.125000
   Auto Start start iteration           ....    20
   Auto Start num. interpolation iter.  ....    10
   Max. Number of Micro iterations      ....    16
   Max. Number of Macro iterations      .... Maxiter - #DIIS iter
   Number of Davidson start vectors     ....     2
   Converg. threshold I  (grad. norm)   ....   1.000e-05
   Converg. threshold II (energy diff.) ....   1.000e-08
   Grad. Scal. Fac. for Micro threshold ....   0.100
   Minimum threshold for Micro iter.    ....   0.010
   NR start threshold (gradient norm)   ....   0.001
   Initial trust radius                 ....   0.400
   Minimum AH scaling param. (alpha)    ....   1.000
   Maximum AH scaling param. (alpha)    .... 1000.000
   Orbital update algorithm             .... Taylor
   White noise on init. David. guess    .... on
   Maximum white noise                  ....   0.010
   Quad. conv. algorithm                .... NR
 SOSCF                  CNVSOSCF        .... off
 Level Shifting         CNVShift        .... on
   Level shift para.    LevelShift      ....    0.2500
   Turn off err/grad.   ShiftErr        ....    0.0010
 Zerner damping         CNVZerner       .... off
 Static damping         CNVDamp         .... on
   Fraction old density DampFac         ....    0.7000
   Max. Damping (<1)    DampMax         ....    0.9800
   Min. Damping (>=0)   DampMin         ....    0.0000
   Turn off err/grad.   DampErr         ....    0.1000
 Fernandez-Rico         CNVRico         .... off

SCF Procedure:
 Maximum # iterations   MaxIter         ....   125
 SCF integral mode      SCFMode         .... Direct
   Integral package                     .... SHARK and LIBINT hybrid scheme
 Reset frequency        DirectResetFreq ....    20
 Integral Threshold     Thresh          ....  2.500e-11 Eh
 Primitive CutOff       TCut            ....  2.500e-12 Eh

Convergence Tolerance:
 Convergence Check Mode ConvCheckMode   .... Total+1el-Energy
 Convergence forced     ConvForced      .... 1
 Energy Change          TolE            ....  1.000e-08 Eh
 1-El. energy change                    ....  1.000e-05 Eh
 DIIS Error             TolErr          ....  5.000e-07


Diagonalization of the overlap matrix:
Smallest eigenvalue                        ... 5.703e-05
Time for diagonalization                   ...    0.164 sec
Threshold for overlap eigenvalues          ... 1.000e-08
Number of eigenvalues below threshold      ... 0
Time for construction of square roots      ...    0.096 sec
Total time needed                          ...    0.261 sec

Time for model grid setup =    2.162 sec

------------------------------
INITIAL GUESS: MODEL POTENTIAL
------------------------------
Loading ZORA relativistic densities                ... done
Calculating cut-offs                               ... done
Initializing the effective Hamiltonian             ... done
Setting up the integral package (SHARK)            ... done
Starting the Coulomb interaction                   ... done (   5.5 sec)
Reading the grid                                   ... done
Mapping shells                                     ... done
Starting the XC term evaluation                    ... done (   2.3 sec)
  promolecular density results
     # of electrons  =    204.992139187
     EX              =   -209.224440327
     EC              =     -7.327570033
     EX+EC           =   -216.552010359
Transforming the Hamiltonian                       ... done (   0.1 sec)
Diagonalizing the Hamiltonian                      ... done (   0.2 sec)
Back transforming the eigenvectors                 ... done (   0.0 sec)
Now organizing SCF variables                       ... done
                      ------------------
                      INITIAL GUESS DONE (  10.3 sec)
                      ------------------
-------------------
DFT GRID GENERATION
-------------------

General Integration Accuracy     IntAcc      ... 4.388
Radial Grid Type                 RadialGrid  ... OptM3 with GC (2021)
Angular Grid (max. ang.)         AngularGrid ... 4 (Lebedev-302)
Angular grid pruning method      GridPruning ... 4 (adaptive)
Weight generation scheme         WeightScheme... Becke
Basis function cutoff            BFCut       ... 1.0000e-11
Integration weight cutoff        WCut        ... 1.0000e-14
Angular grids for H and He will be reduced by one unit
Partially contracted basis set               ... off
Rotationally invariant grid construction     ... off

Total number of grid points                  ...   231686
Total number of batches                      ...     3644
Average number of points per batch           ...       63
Average number of grid points per atom       ...     4728
Time for grid setup =    6.756 sec

--------------------
COSX GRID GENERATION
--------------------

GRIDX 1
-------
General Integration Accuracy     IntAcc      ... 3.816
Radial Grid Type                 RadialGrid  ... OptM3 with GC (2021)
Angular Grid (max. ang.)         AngularGrid ... 1 (Lebedev-50)
Angular grid pruning method      GridPruning ... 4 (adaptive)
Weight generation scheme         WeightScheme... Becke
Basis function cutoff            BFCut       ... 1.0000e-11
Integration weight cutoff        WCut        ... 1.0000e-14
Angular grids for H and He will be reduced by one unit
Partially contracted basis set               ... on
Rotationally invariant grid construction     ... off

Total number of grid points                  ...    29299
Total number of batches                      ...      481
Average number of points per batch           ...       60
Average number of grid points per atom       ...      598
UseSFitting                                  ... on

GRIDX 2
-------
General Integration Accuracy     IntAcc      ... 4.020
Radial Grid Type                 RadialGrid  ... OptM3 with GC (2021)
Angular Grid (max. ang.)         AngularGrid ... 2 (Lebedev-110)
Angular grid pruning method      GridPruning ... 4 (adaptive)
Weight generation scheme         WeightScheme... Becke
Basis function cutoff            BFCut       ... 1.0000e-11
Integration weight cutoff        WCut        ... 1.0000e-14
Angular grids for H and He will be reduced by one unit
Partially contracted basis set               ... on
Rotationally invariant grid construction     ... off

Total number of grid points                  ...    62716
Total number of batches                      ...     1007
Average number of points per batch           ...       62
Average number of grid points per atom       ...     1280
UseSFitting                                  ... on

GRIDX 3
-------
General Integration Accuracy     IntAcc      ... 4.338
Radial Grid Type                 RadialGrid  ... OptM3 with GC (2021)
Angular Grid (max. ang.)         AngularGrid ... 3 (Lebedev-194)
Angular grid pruning method      GridPruning ... 4 (adaptive)
Weight generation scheme         WeightScheme... Becke
Basis function cutoff            BFCut       ... 1.0000e-11
Integration weight cutoff        WCut        ... 1.0000e-14
Angular grids for H and He will be reduced by one unit
Partially contracted basis set               ... on
Rotationally invariant grid construction     ... off

Total number of grid points                  ...   136734
Total number of batches                      ...     2162
Average number of points per batch           ...       63
Average number of grid points per atom       ...     2790
UseSFitting                                  ... on

Time for X-Grid setup             =   10.162 sec

--------------
SCF ITERATIONS
--------------
ITER       Energy         Delta-E        Max-DP      RMS-DP      [F,P]     Damp
               ***  Starting incremental Fock matrix formation  ***
  0  -2724.8267128815   0.000000000000 0.04388172  0.00032348  0.1991409 0.7000
  1  -2725.1647586850  -0.338045803465 0.02321888  0.00020815  0.1376663 0.7000
                               ***Turning on DIIS***
  2  -2725.2915334854  -0.126774800452 0.04471857  0.00029518  0.0949531 0.0000
  3  -2725.4886758079  -0.197142322510 0.01479379  0.00016109  0.0320550 0.0000
  4  -2725.5399730532  -0.051297245314 0.00259467  0.00004630  0.0057405 0.0000
  5  -2725.5430468606  -0.003073807386 0.00419906  0.00002139  0.0064144 0.0000
  6  -2725.5432973062  -0.000250445611 0.00167498  0.00001158  0.0057818 0.0000
  7  -2725.5434045680  -0.000107261711 0.00079763  0.00000485  0.0025774 0.0000
  8  -2725.5434346321  -0.000030064165 0.00056674  0.00000423  0.0004476 0.0000
               *** Restarting incremental Fock matrix formation ***
                                   *** Resetting DIIS ***
  9  -2725.5434461831  -0.000011550939 0.00036302  0.00000352  0.0002403 0.0000
 10  -2725.5434429471   0.000003235913 0.00029422  0.00000140  0.0008337 0.0000
 11  -2725.5434465313  -0.000003584170 0.00008393  0.00000041  0.0002448 0.0000
 12  -2725.5434469061  -0.000000374766 0.00001050  0.00000013  0.0000359 0.0000
 13  -2725.5434468794   0.000000026652 0.00000312  0.00000005  0.0000114 0.0000
 14  -2725.5434469859  -0.000000106514 0.00000582  0.00000005  0.0000024 0.0000
 15  -2725.5434469351   0.000000050848 0.00000357  0.00000004  0.0000025 0.0000
                            ***DIIS convergence achieved***

               *****************************************************
               *                     SUCCESS                       *
               *           SCF CONVERGED AFTER  16 CYCLES          *
               *****************************************************

Old exchange energy                            =    -42.086261320 Eh
New exchange energy                            =    -42.086255245 Eh
Exchange energy change after final integration =      0.000006076 Eh
Total energy after final integration           =  -2725.543440854 Eh
Final COS-X integration done in                =   309.107 sec

----------------
TOTAL SCF ENERGY
----------------

Total Energy       :        -2725.54344085 Eh          -74165.80754 eV

Components:
Nuclear Repulsion  :         2711.19162750 Eh           73775.27485 eV
Electronic Energy  :        -5436.73506835 Eh         -147941.08239 eV
One Electron Energy:        -9132.59685920 Eh         -248510.59457 eV
Two Electron Energy:         3695.86179085 Eh          100569.51218 eV
Max COSX asymmetry :            0.00000033 Eh               0.00001 eV

Virial components:
Potential Energy   :        -5469.71952803 Eh         -148838.63517 eV
Kinetic Energy     :         2744.17608717 Eh           74672.82763 eV
Virial Ratio       :            1.99321011


DFT components:
N(Alpha)           :      102.000006541598 electrons
N(Beta)            :      102.000006541598 electrons
N(Total)           :      204.000013083197 electrons
E(X)               :     -167.641465399407 Eh       
E(C)               :       -8.596011040170 Eh       
E(XC)              :     -176.237476439577 Eh       
DFET-embed. en.    :        0.000000000000 Eh       

---------------
SCF CONVERGENCE
---------------

  Last Energy change         ...    5.3137e-09  Tolerance :   1.0000e-08
  Last MAX-Density change    ...    0.0000e+00  Tolerance :   1.0000e-07
  Last RMS-Density change    ...    0.0000e+00  Tolerance :   5.0000e-09
  Last DIIS Error            ...    2.7026e-07  Tolerance :   5.0000e-07

             **** THE GBW FILE WAS UPDATED (KXAS_Cu_I_APP_E2_opt.gbw) ****
             **** DENSITY KXAS_Cu_I_APP_E2_opt.scfp WAS UPDATED ****
             **** ENERGY FILE WAS UPDATED (KXAS_Cu_I_APP_E2_opt.en.tmp) ****
----------------------
UHF SPIN CONTAMINATION
----------------------

Warning: in a DFT calculation there is little theoretical justification to 
         calculate <S**2> as in Hartree-Fock theory. We will do it anyways
         but you should keep in mind that the values have only limited relevance

Expectation value of <S**2>     :     0.000000
Ideal value S*(S+1) for S=0.0   :     0.000000
Deviation                       :     0.000000

             **** THE GBW FILE WAS UPDATED (KXAS_Cu_I_APP_E2_opt.gbw) ****
             **** DENSITY KXAS_Cu_I_APP_E2_opt.scfp WAS UPDATED ****
----------------
ORBITAL ENERGIES
----------------
                 SPIN UP ORBITALS
  NO   OCC          E(Eh)            E(eV) 
   0   1.0000    -330.501997     -8993.4166 
   1   1.0000     -39.700047     -1080.2932 
   2   1.0000     -34.227367      -931.3740 
   3   1.0000     -34.227355      -931.3737 
   4   1.0000     -34.227342      -931.3733 
   5   1.0000     -14.488206      -394.2441 
   6   1.0000     -14.486344      -394.1935 
   7   1.0000     -14.486265      -394.1913 
   8   1.0000     -14.484330      -394.1386 
   9   1.0000     -14.435238      -392.8028 
  10   1.0000     -14.433773      -392.7629 
  11   1.0000     -14.432906      -392.7393 
  12   1.0000     -14.431459      -392.7000 
  13   1.0000     -10.337212      -281.2898 
  14   1.0000     -10.335672      -281.2479 
  15   1.0000     -10.335229      -281.2359 
  16   1.0000     -10.333732      -281.1951 
  17   1.0000     -10.315689      -280.7042 
  18   1.0000     -10.313688      -280.6497 
  19   1.0000     -10.313182      -280.6360 
  20   1.0000     -10.311081      -280.5788 
  21   1.0000     -10.290440      -280.0171 
  22   1.0000     -10.288459      -279.9632 
  23   1.0000     -10.287890      -279.9477 
  24   1.0000     -10.285675      -279.8875 
  25   1.0000     -10.279949      -279.7316 
  26   1.0000     -10.278231      -279.6849 
  27   1.0000     -10.277628      -279.6685 
  28   1.0000     -10.275869      -279.6206 
  29   1.0000      -4.445894      -120.9789 
  30   1.0000      -2.836329       -77.1804 
  31   1.0000      -2.836232       -77.1778 
  32   1.0000      -2.835891       -77.1685 
  33   1.0000      -1.111332       -30.2409 
  34   1.0000      -1.109481       -30.1905 
  35   1.0000      -1.109219       -30.1834 
  36   1.0000      -1.107303       -30.1312 
  37   1.0000      -0.972531       -26.4639 
  38   1.0000      -0.970552       -26.4101 
  39   1.0000      -0.969513       -26.3818 
  40   1.0000      -0.967920       -26.3384 
  41   1.0000      -0.868822       -23.6419 
  42   1.0000      -0.866940       -23.5906 
  43   1.0000      -0.866610       -23.5817 
  44   1.0000      -0.864666       -23.5288 
  45   1.0000      -0.785162       -21.3653 
  46   1.0000      -0.783304       -21.3148 
  47   1.0000      -0.782905       -21.3039 
  48   1.0000      -0.781062       -21.2538 
  49   1.0000      -0.713658       -19.4196 
  50   1.0000      -0.712062       -19.3762 
  51   1.0000      -0.710860       -19.3435 
  52   1.0000      -0.708752       -19.2861 
  53   1.0000      -0.685914       -18.6647 
  54   1.0000      -0.684036       -18.6136 
  55   1.0000      -0.683672       -18.6037 
  56   1.0000      -0.681475       -18.5439 
  57   1.0000      -0.631886       -17.1945 
  58   1.0000      -0.629376       -17.1262 
  59   1.0000      -0.629119       -17.1192 
  60   1.0000      -0.627688       -17.0803 
  61   1.0000      -0.551220       -14.9994 
  62   1.0000      -0.548846       -14.9349 
  63   1.0000      -0.547438       -14.8965 
  64   1.0000      -0.545860       -14.8536 
  65   1.0000      -0.542899       -14.7730 
  66   1.0000      -0.541115       -14.7245 
  67   1.0000      -0.540543       -14.7089 
  68   1.0000      -0.538797       -14.6614 
  69   1.0000      -0.509000       -13.8506 
  70   1.0000      -0.508236       -13.8298 
  71   1.0000      -0.507283       -13.8039 
  72   1.0000      -0.506618       -13.7858 
  73   1.0000      -0.506258       -13.7760 
  74   1.0000      -0.505953       -13.7677 
  75   1.0000      -0.504484       -13.7277 
  76   1.0000      -0.503429       -13.6990 
  77   1.0000      -0.493161       -13.4196 
  78   1.0000      -0.491392       -13.3715 
  79   1.0000      -0.490786       -13.3550 
  80   1.0000      -0.489038       -13.3074 
  81   1.0000      -0.487699       -13.2710 
  82   1.0000      -0.483715       -13.1626 
  83   1.0000      -0.482487       -13.1291 
  84   1.0000      -0.480930       -13.0868 
  85   1.0000      -0.445070       -12.1110 
  86   1.0000      -0.420922       -11.4539 
  87   1.0000      -0.419983       -11.4283 
  88   1.0000      -0.418947       -11.4001 
  89   1.0000      -0.393792       -10.7156 
  90   1.0000      -0.389775       -10.6063 
  91   1.0000      -0.387499       -10.5444 
  92   1.0000      -0.385871       -10.5001 
  93   1.0000      -0.324530        -8.8309 
  94   1.0000      -0.322151        -8.7662 
  95   1.0000      -0.320922        -8.7327 
  96   1.0000      -0.319327        -8.6893 
  97   1.0000      -0.283029        -7.7016 
  98   1.0000      -0.282365        -7.6835 
  99   1.0000      -0.261607        -7.1187 
 100   1.0000      -0.258864        -7.0441 
 101   1.0000      -0.258704        -7.0397 
 102   0.0000      -0.086009        -2.3404 
 103   0.0000      -0.081680        -2.2226 
 104   0.0000      -0.079970        -2.1761 
 105   0.0000      -0.079483        -2.1628 
 106   0.0000      -0.069030        -1.8784 
 107   0.0000      -0.059337        -1.6146 
 108   0.0000      -0.058134        -1.5819 
 109   0.0000      -0.057170        -1.5557 
 110   0.0000      -0.048611        -1.3228 
 111   0.0000      -0.046689        -1.2705 
 112   0.0000      -0.045494        -1.2379 
 113   0.0000      -0.042727        -1.1627 
 114   0.0000      -0.032708        -0.8900 
 115   0.0000      -0.029606        -0.8056 
 116   0.0000      -0.024447        -0.6652 
 117   0.0000      -0.023306        -0.6342 
 118   0.0000      -0.022505        -0.6124 
 119   0.0000      -0.010993        -0.2991 
 120   0.0000      -0.009338        -0.2541 
 121   0.0000      -0.008684        -0.2363 
 122   0.0000      -0.002402        -0.0654 
 123   0.0000      -0.001035        -0.0282 
 124   0.0000       0.006171         0.1679 
 125   0.0000       0.015932         0.4335 
 126   0.0000       0.016698         0.4544 
 127   0.0000       0.026107         0.7104 
 128   0.0000       0.028811         0.7840 
 129   0.0000       0.031660         0.8615 
 130   0.0000       0.038172         1.0387 
 131   0.0000       0.038936         1.0595 
 132   0.0000       0.040070         1.0904 
 133   0.0000       0.042032         1.1437 
 134   0.0000       0.046591         1.2678 
 135   0.0000       0.048396         1.3169 
 136   0.0000       0.050267         1.3678 
 137   0.0000       0.054131         1.4730 
 138   0.0000       0.057803         1.5729 
 139   0.0000       0.058835         1.6010 
 140   0.0000       0.061525         1.6742 
 141   0.0000       0.061864         1.6834 
 142   0.0000       0.063084         1.7166 
 143   0.0000       0.078730         2.1423 
 144   0.0000       0.089916         2.4467 
 145   0.0000       0.092567         2.5189 
 146   0.0000       0.102231         2.7819 
 147   0.0000       0.107694         2.9305 
 148   0.0000       0.110364         3.0032 
 149   0.0000       0.111839         3.0433 
 150   0.0000       0.117600         3.2000 
 151   0.0000       0.119539         3.2528 
 152   0.0000       0.126562         3.4439 
 153   0.0000       0.129253         3.5171 
 154   0.0000       0.131379         3.5750 
 155   0.0000       0.134543         3.6611 
 156   0.0000       0.135999         3.7007 
 157   0.0000       0.140201         3.8151 
 158   0.0000       0.144415         3.9297 
 159   0.0000       0.146682         3.9914 
 160   0.0000       0.148139         4.0311 
 161   0.0000       0.149541         4.0692 
 162   0.0000       0.151631         4.1261 
 163   0.0000       0.157210         4.2779 
 164   0.0000       0.160851         4.3770 
 165   0.0000       0.168050         4.5729 
 166   0.0000       0.174024         4.7354 
 167   0.0000       0.178466         4.8563 
 168   0.0000       0.178616         4.8604 
 169   0.0000       0.184092         5.0094 
 170   0.0000       0.190406         5.1812 
 171   0.0000       0.195306         5.3145 
 172   0.0000       0.197472         5.3735 
 173   0.0000       0.204369         5.5612 
 174   0.0000       0.205979         5.6050 
 175   0.0000       0.207022         5.6334 
 176   0.0000       0.222927         6.0661 
 177   0.0000       0.225247         6.1293 
 178   0.0000       0.226477         6.1627 
 179   0.0000       0.230973         6.2851 
 180   0.0000       0.232196         6.3184 
 181   0.0000       0.235714         6.4141 
 182   0.0000       0.238194         6.4816 
 183   0.0000       0.242065         6.5869 
 184   0.0000       0.247635         6.7385 
 185   0.0000       0.260225         7.0811 
 186   0.0000       0.263226         7.1627 
 187   0.0000       0.268936         7.3181 
 188   0.0000       0.269782         7.3412 
 189   0.0000       0.276915         7.5352 
 190   0.0000       0.281115         7.6495 
 191   0.0000       0.284291         7.7359 
 192   0.0000       0.286231         7.7887 
 193   0.0000       0.290523         7.9055 
 194   0.0000       0.291329         7.9275 
 195   0.0000       0.294164         8.0046 
 196   0.0000       0.300729         8.1833 
 197   0.0000       0.303707         8.2643 
 198   0.0000       0.305068         8.3013 
 199   0.0000       0.312272         8.4973 
 200   0.0000       0.313171         8.5218 
 201   0.0000       0.315581         8.5874 
 202   0.0000       0.317257         8.6330 
 203   0.0000       0.323722         8.8089 
 204   0.0000       0.326495         8.8844 
 205   0.0000       0.327884         8.9222 
 206   0.0000       0.335853         9.1390 
 207   0.0000       0.340368         9.2619 
 208   0.0000       0.341003         9.2792 
 209   0.0000       0.341965         9.3053 
 210   0.0000       0.344727         9.3805 
 211   0.0000       0.349935         9.5222 
 212   0.0000       0.354521         9.6470 
 213   0.0000       0.359433         9.7807 
 214   0.0000       0.363456         9.8902 
 215   0.0000       0.365481         9.9453 
 216   0.0000       0.368303        10.0220 
 217   0.0000       0.372085        10.1249 
 218   0.0000       0.374205        10.1826 
 219   0.0000       0.378162        10.2903 
 220   0.0000       0.381382        10.3779 
 221   0.0000       0.386410        10.5148 
 222   0.0000       0.386612        10.5202 
 223   0.0000       0.390828        10.6350 
 224   0.0000       0.393341        10.7034 
 225   0.0000       0.395564        10.7638 
 226   0.0000       0.396772        10.7967 
 227   0.0000       0.402472        10.9518 
 228   0.0000       0.406644        11.0654 
 229   0.0000       0.408818        11.1245 
 230   0.0000       0.411695        11.2028 
 231   0.0000       0.417211        11.3529 
 232   0.0000       0.418842        11.3973 
 233   0.0000       0.423017        11.5109 
 234   0.0000       0.425553        11.5799 
 235   0.0000       0.430048        11.7022 
 236   0.0000       0.431061        11.7298 
 237   0.0000       0.437062        11.8931 
 238   0.0000       0.437937        11.9169 
 239   0.0000       0.444979        12.1085 
 240   0.0000       0.447983        12.1902 
 241   0.0000       0.450508        12.2589 
 242   0.0000       0.460040        12.5183 
 243   0.0000       0.462870        12.5953 
 244   0.0000       0.468790        12.7564 
 245   0.0000       0.472900        12.8683 
 246   0.0000       0.476039        12.9537 
 247   0.0000       0.480097        13.0641 
 248   0.0000       0.484796        13.1920 
 249   0.0000       0.486517        13.2388 
 250   0.0000       0.487188        13.2571 
 251   0.0000       0.493469        13.4280 
 252   0.0000       0.500171        13.6103 
 253   0.0000       0.502742        13.6803 
 254   0.0000       0.505089        13.7442 
 255   0.0000       0.515217        14.0198 
 256   0.0000       0.527612        14.3570 
 257   0.0000       0.529287        14.4026 
 258   0.0000       0.537315        14.6211 
 259   0.0000       0.545012        14.8305 
 260   0.0000       0.551756        15.0140 
 261   0.0000       0.556462        15.1421 
 262   0.0000       0.567684        15.4475 
 263   0.0000       0.570792        15.5320 
 264   0.0000       0.575690        15.6653 
 265   0.0000       0.585819        15.9409 
 266   0.0000       0.588437        16.0122 
 267   0.0000       0.592148        16.1132 
 268   0.0000       0.593372        16.1465 
 269   0.0000       0.599335        16.3087 
 270   0.0000       0.607906        16.5420 
 271   0.0000       0.611689        16.6449 
 272   0.0000       0.624682        16.9985 
 273   0.0000       0.626168        17.0389 
 274   0.0000       0.629646        17.1335 
 275   0.0000       0.632980        17.2243 
 276   0.0000       0.639151        17.3922 
 277   0.0000       0.645940        17.5769 
 278   0.0000       0.651480        17.7277 
 279   0.0000       0.656081        17.8529 
 280   0.0000       0.662147        18.0179 
 281   0.0000       0.666787        18.1442 
 282   0.0000       0.673592        18.3294 
 283   0.0000       0.675584        18.3836 
 284   0.0000       0.679327        18.4854 
 285   0.0000       0.690060        18.7775 
 286   0.0000       0.695724        18.9316 
 287   0.0000       0.698784        19.0149 
 288   0.0000       0.707519        19.2526 
 289   0.0000       0.713128        19.4052 
 290   0.0000       0.715157        19.4604 
 291   0.0000       0.718596        19.5540 
 292   0.0000       0.723761        19.6945 
 293   0.0000       0.743146        20.2220 
 294   0.0000       0.748386        20.3646 
 295   0.0000       0.756585        20.5877 
 296   0.0000       0.760092        20.6832 
 297   0.0000       0.768622        20.9153 
 298   0.0000       0.779006        21.1978 
 299   0.0000       0.787381        21.4257 
 300   0.0000       0.788866        21.4661 
 301   0.0000       0.793845        21.6016 
 302   0.0000       0.798815        21.7369 
 303   0.0000       0.803648        21.8684 
 304   0.0000       0.815073        22.1793 
 305   0.0000       0.823144        22.3989 
 306   0.0000       0.829101        22.5610 
 307   0.0000       0.837513        22.7899 
 308   0.0000       0.841360        22.8946 
 309   0.0000       0.845841        23.0165 
 310   0.0000       0.851703        23.1760 
 311   0.0000       0.868213        23.6253 
 312   0.0000       0.875465        23.8226 
 313   0.0000       0.878270        23.8989 
 314   0.0000       0.879891        23.9431 
 315   0.0000       0.887909        24.1612 
 316   0.0000       0.890273        24.2256 
 317   0.0000       0.896156        24.3856 
 318   0.0000       0.899625        24.4800 
 319   0.0000       0.908769        24.7289 
 320   0.0000       0.916744        24.9459 
 321   0.0000       0.920853        25.0577 
 322   0.0000       0.932588        25.3770 
 323   0.0000       0.942937        25.6586 
 324   0.0000       0.943361        25.6701 
 325   0.0000       0.949760        25.8443 
 326   0.0000       0.955059        25.9885 
 327   0.0000       0.962398        26.1882 
 328   0.0000       0.993711        27.0403 
 329   0.0000       1.001994        27.2656 
 330   0.0000       1.007049        27.4032 
 331   0.0000       1.007780        27.4231 
 332   0.0000       1.014911        27.6171 
 333   0.0000       1.021889        27.8070 
 334   0.0000       1.025295        27.8997 
 335   0.0000       1.031158        28.0592 
 336   0.0000       1.035760        28.1845 
 337   0.0000       1.041254        28.3340 
 338   0.0000       1.042218        28.3602 
 339   0.0000       1.044557        28.4238 
 340   0.0000       1.047266        28.4975 
 341   0.0000       1.053830        28.6762 
 342   0.0000       1.056995        28.7623 
 343   0.0000       1.065831        29.0027 
 344   0.0000       1.073074        29.1998 
 345   0.0000       1.079795        29.3827 
 346   0.0000       1.082312        29.4512 
 347   0.0000       1.090158        29.6647 
 348   0.0000       1.091081        29.6898 
 349   0.0000       1.097916        29.8758 
 350   0.0000       1.107095        30.1256 
 351   0.0000       1.115285        30.3484 
 352   0.0000       1.126948        30.6658 
 353   0.0000       1.150083        31.2954 
 354   0.0000       1.167632        31.7729 
 355   0.0000       1.171224        31.8706 
 356   0.0000       1.180976        32.1360 
 357   0.0000       1.193393        32.4739 
 358   0.0000       1.195605        32.5341 
 359   0.0000       1.204524        32.7768 
 360   0.0000       1.204858        32.7858 
 361   0.0000       1.216445        33.1012 
 362   0.0000       1.220957        33.2239 
 363   0.0000       1.225724        33.3536 
 364   0.0000       1.237931        33.6858 
 365   0.0000       1.246561        33.9207 
 366   0.0000       1.259629        34.2763 
 367   0.0000       1.261362        34.3234 
 368   0.0000       1.265777        34.4435 
 369   0.0000       1.267562        34.4921 
 370   0.0000       1.270374        34.5686 
 371   0.0000       1.272034        34.6138 
 372   0.0000       1.275960        34.7206 
 373   0.0000       1.276545        34.7366 
 374   0.0000       1.285619        34.9835 
 375   0.0000       1.290909        35.1274 
 376   0.0000       1.294960        35.2377 
 377   0.0000       1.300130        35.3783 
 378   0.0000       1.306533        35.5526 
 379   0.0000       1.314583        35.7716 
 380   0.0000       1.327157        36.1138 
 381   0.0000       1.334036        36.3010 
 382   0.0000       1.343056        36.5464 
 383   0.0000       1.352181        36.7947 
 384   0.0000       1.357484        36.9390 
 385   0.0000       1.365276        37.1510 
 386   0.0000       1.370959        37.3057 
 387   0.0000       1.375784        37.4370 
 388   0.0000       1.380849        37.5748 
 389   0.0000       1.385669        37.7060 
 390   0.0000       1.397615        38.0310 
 391   0.0000       1.402021        38.1509 
 392   0.0000       1.404668        38.2230 
 393   0.0000       1.410469        38.3808 
 394   0.0000       1.413715        38.4691 
 395   0.0000       1.416446        38.5435 
 396   0.0000       1.421114        38.6705 
 397   0.0000       1.425062        38.7779 
 398   0.0000       1.430431        38.9240 
 399   0.0000       1.432722        38.9863 
 400   0.0000       1.438018        39.1305 
 401   0.0000       1.440212        39.1902 
 402   0.0000       1.441087        39.2140 
 403   0.0000       1.443274        39.2735 
 404   0.0000       1.446205        39.3532 
 405   0.0000       1.455259        39.5996 
 406   0.0000       1.467186        39.9242 
 407   0.0000       1.468487        39.9596 
 408   0.0000       1.470410        40.0119 
 409   0.0000       1.474098        40.1122 
 410   0.0000       1.479944        40.2713 
 411   0.0000       1.482514        40.3412 
 412   0.0000       1.488178        40.4954 
 413   0.0000       1.510522        41.1034 
 414   0.0000       1.516066        41.2542 
 415   0.0000       1.520501        41.3749 
 416   0.0000       1.522753        41.4362 
 417   0.0000       1.526423        41.5361 
 418   0.0000       1.527872        41.5755 
 419   0.0000       1.530104        41.6363 
 420   0.0000       1.537277        41.8314 
 421   0.0000       1.541097        41.9354 
 422   0.0000       1.543855        42.0104 
 423   0.0000       1.547005        42.0961 
 424   0.0000       1.554212        42.2923 
 425   0.0000       1.557808        42.3901 
 426   0.0000       1.559247        42.4293 
 427   0.0000       1.561045        42.4782 
 428   0.0000       1.566662        42.6310 
 429   0.0000       1.587480        43.1975 
 430   0.0000       1.592525        43.3348 
 431   0.0000       1.599773        43.5320 
 432   0.0000       1.608025        43.7566 
 433   0.0000       1.608670        43.7741 
 434   0.0000       1.616718        43.9931 
 435   0.0000       1.623969        44.1904 
 436   0.0000       1.630834        44.3772 
 437   0.0000       1.640383        44.6371 
 438   0.0000       1.659508        45.1575 
 439   0.0000       1.663675        45.2709 
 440   0.0000       1.669346        45.4252 
 441   0.0000       1.669998        45.4430 
 442   0.0000       1.672524        45.5117 
 443   0.0000       1.678605        45.6772 
 444   0.0000       1.684464        45.8366 
 445   0.0000       1.694625        46.1131 
 446   0.0000       1.708042        46.4782 
 447   0.0000       1.714688        46.6590 
 448   0.0000       1.723425        46.8968 
 449   0.0000       1.730608        47.0922 
 450   0.0000       1.743376        47.4397 
 451   0.0000       1.756325        47.7920 
 452   0.0000       1.761487        47.9325 
 453   0.0000       1.775954        48.3262 
 454   0.0000       1.778608        48.3984 
 455   0.0000       1.795338        48.8536 
 456   0.0000       1.797983        48.9256 
 457   0.0000       1.801020        49.0082 
 458   0.0000       1.812217        49.3129 
 459   0.0000       1.819076        49.4996 
 460   0.0000       1.823611        49.6230 
 461   0.0000       1.827502        49.7289 
 462   0.0000       1.828515        49.7564 
 463   0.0000       1.839274        50.0492 
 464   0.0000       1.842212        50.1291 
 465   0.0000       1.847287        50.2672 
 466   0.0000       1.864935        50.7475 
 467   0.0000       1.868819        50.8532 
 468   0.0000       1.873055        50.9684 
 469   0.0000       1.884735        51.2863 
 470   0.0000       1.889996        51.4294 
 471   0.0000       1.895921        51.5906 
 472   0.0000       1.911089        52.0034 
 473   0.0000       1.927516        52.4504 
 474   0.0000       1.930324        52.5268 
 475   0.0000       1.938062        52.7374 
 476   0.0000       1.953988        53.1707 
 477   0.0000       1.955735        53.2182 
 478   0.0000       1.964021        53.4437 
 479   0.0000       1.975050        53.7438 
 480   0.0000       1.979345        53.8607 
 481   0.0000       1.987398        54.0799 
 482   0.0000       1.994714        54.2789 
 483   0.0000       1.997419        54.3525 
 484   0.0000       2.007222        54.6193 
 485   0.0000       2.010064        54.6966 
 486   0.0000       2.012025        54.7500 
 487   0.0000       2.014338        54.8129 
 488   0.0000       2.018533        54.9271 
 489   0.0000       2.021146        54.9982 
 490   0.0000       2.024893        55.1001 
 491   0.0000       2.027189        55.1626 
 492   0.0000       2.034045        55.3492 
 493   0.0000       2.054637        55.9095 
 494   0.0000       2.061139        56.0865 
 495   0.0000       2.071779        56.3760 
 496   0.0000       2.076526        56.5051 
 497   0.0000       2.083811        56.7034 
 498   0.0000       2.087807        56.8121 
 499   0.0000       2.092992        56.9532 
 500   0.0000       2.099594        57.1329 
 501   0.0000       2.108127        57.3650 
 502   0.0000       2.139913        58.2300 
 503   0.0000       2.140605        58.2488 
 504   0.0000       2.145488        58.3817 
 505   0.0000       2.154370        58.6234 
 506   0.0000       2.159554        58.7644 
 507   0.0000       2.162466        58.8437 
 508   0.0000       2.166011        58.9402 
 509   0.0000       2.178311        59.2748 
 510   0.0000       2.194968        59.7281 
 511   0.0000       2.203179        59.9516 
 512   0.0000       2.217314        60.3362 
 513   0.0000       2.222407        60.4748 
 514   0.0000       2.225773        60.5664 
 515   0.0000       2.230875        60.7052 
 516   0.0000       2.237275        60.8793 
 517   0.0000       2.239057        60.9278 
 518   0.0000       2.240935        60.9789 
 519   0.0000       2.244959        61.0884 
 520   0.0000       2.246475        61.1297 
 521   0.0000       2.261047        61.5262 
 522   0.0000       2.266056        61.6625 
 523   0.0000       2.268438        61.7273 
 524   0.0000       2.272881        61.8482 
 525   0.0000       2.280168        62.0465 
 526   0.0000       2.286505        62.2190 
 527   0.0000       2.290150        62.3181 
 528   0.0000       2.298502        62.5454 
 529   0.0000       2.314385        62.9776 
 530   0.0000       2.329121        63.3786 
 531   0.0000       2.337634        63.6103 
 532   0.0000       2.341302        63.7101 
 533   0.0000       2.346555        63.8530 
 534   0.0000       2.352035        64.0021 
 535   0.0000       2.354938        64.0811 
 536   0.0000       2.358517        64.1785 
 537   0.0000       2.365594        64.3711 
 538   0.0000       2.375509        64.6409 
 539   0.0000       2.378465        64.7213 
 540   0.0000       2.393026        65.1175 
 541   0.0000       2.398064        65.2546 
 542   0.0000       2.420331        65.8605 
 543   0.0000       2.426985        66.0416 
 544   0.0000       2.431670        66.1691 
 545   0.0000       2.433009        66.2055 
 546   0.0000       2.444124        66.5080 
 547   0.0000       2.450073        66.6699 
 548   0.0000       2.460493        66.9534 
 549   0.0000       2.476641        67.3928 
 550   0.0000       2.482975        67.5652 
 551   0.0000       2.485603        67.6367 
 552   0.0000       2.487219        67.6807 
 553   0.0000       2.493764        67.8588 
 554   0.0000       2.497217        67.9527 
 555   0.0000       2.498536        67.9886 
 556   0.0000       2.500544        68.0433 
 557   0.0000       2.514620        68.4263 
 558   0.0000       2.524497        68.6951 
 559   0.0000       2.529208        68.8233 
 560   0.0000       2.549074        69.3638 
 561   0.0000       2.558474        69.6196 
 562   0.0000       2.561942        69.7140 
 563   0.0000       2.564752        69.7905 
 564   0.0000       2.572545        70.0025 
 565   0.0000       2.583210        70.2927 
 566   0.0000       2.590493        70.4909 
 567   0.0000       2.594945        70.6120 
 568   0.0000       2.601874        70.8006 
 569   0.0000       2.614036        71.1315 
 570   0.0000       2.626655        71.4749 
 571   0.0000       2.628743        71.5317 
 572   0.0000       2.636454        71.7416 
 573   0.0000       2.638341        71.7929 
 574   0.0000       2.642622        71.9094 
 575   0.0000       2.655690        72.2650 
 576   0.0000       2.678525        72.8864 
 577   0.0000       2.680147        72.9305 
 578   0.0000       2.691035        73.2268 
 579   0.0000       2.694321        73.3162 
 580   0.0000       2.728515        74.2467 
 581   0.0000       2.735755        74.4437 
 582   0.0000       2.736741        74.4705 
 583   0.0000       2.743477        74.6538 
 584   0.0000       2.752677        74.9042 
 585   0.0000       2.755244        74.9740 
 586   0.0000       2.758428        75.0606 
 587   0.0000       2.764352        75.2218 
 588   0.0000       2.765599        75.2558 
 589   0.0000       2.767742        75.3141 
 590   0.0000       2.777574        75.5816 
 591   0.0000       2.782709        75.7214 
 592   0.0000       2.785849        75.8068 
 593   0.0000       2.794877        76.0525 
 594   0.0000       2.795953        76.0818 
 595   0.0000       2.807302        76.3906 
 596   0.0000       2.809646        76.4543 
 597   0.0000       2.810106        76.4669 
 598   0.0000       2.818864        76.7052 
 599   0.0000       2.820351        76.7457 
 600   0.0000       2.824102        76.8477 
 601   0.0000       2.828296        76.9618 
 602   0.0000       2.830990        77.0352 
 603   0.0000       2.831896        77.0598 
 604   0.0000       2.839817        77.2754 
 605   0.0000       2.852821        77.6292 
 606   0.0000       2.853740        77.6542 
 607   0.0000       2.858734        77.7901 
 608   0.0000       2.863072        77.9081 
 609   0.0000       2.868828        78.0648 
 610   0.0000       2.873762        78.1990 
 611   0.0000       2.878866        78.3379 
 612   0.0000       2.912568        79.2550 
 613   0.0000       2.915907        79.3459 
 614   0.0000       2.916528        79.3628 
 615   0.0000       2.918833        79.4255 
 616   0.0000       2.920586        79.4732 
 617   0.0000       2.922500        79.5253 
 618   0.0000       2.925760        79.6140 
 619   0.0000       2.928081        79.6771 
 620   0.0000       2.930920        79.7544 
 621   0.0000       2.941844        80.0516 
 622   0.0000       2.948149        80.2232 
 623   0.0000       2.953453        80.3675 
 624   0.0000       2.958368        80.5013 
 625   0.0000       2.961035        80.5739 
 626   0.0000       2.965054        80.6832 
 627   0.0000       2.965466        80.6944 
 628   0.0000       2.967612        80.7528 
 629   0.0000       2.973505        80.9132 
 630   0.0000       2.975561        80.9691 
 631   0.0000       2.983978        81.1982 
 632   0.0000       2.985790        81.2475 
 633   0.0000       2.990274        81.3695 
 634   0.0000       2.994014        81.4713 
 635   0.0000       2.996497        81.5388 
 636   0.0000       3.005244        81.7768 
 637   0.0000       3.006886        81.8215 
 638   0.0000       3.024150        82.2913 
 639   0.0000       3.030258        82.4575 
 640   0.0000       3.035395        82.5973 
 641   0.0000       3.037103        82.6438 
 642   0.0000       3.043250        82.8110 
 643   0.0000       3.043766        82.8251 
 644   0.0000       3.049887        82.9917 
 645   0.0000       3.056368        83.1680 
 646   0.0000       3.059762        83.2604 
 647   0.0000       3.061975        83.3206 
 648   0.0000       3.111988        84.6815 
 649   0.0000       3.121929        84.9520 
 650   0.0000       3.127417        85.1013 
 651   0.0000       3.128710        85.1365 
 652   0.0000       3.132875        85.2499 
 653   0.0000       3.136166        85.3394 
 654   0.0000       3.138118        85.3925 
 655   0.0000       3.138883        85.4134 
 656   0.0000       3.140793        85.4653 
 657   0.0000       3.141361        85.4808 
 658   0.0000       3.143513        85.5393 
 659   0.0000       3.151918        85.7681 
 660   0.0000       3.154622        85.8416 
 661   0.0000       3.156942        85.9048 
 662   0.0000       3.164156        86.1011 
 663   0.0000       3.174561        86.3842 
 664   0.0000       3.203360        87.1679 
[...]
  11   31259.1    319.9      0.45628  -0.00394  -0.00339   0.02584
  12   31478.5    317.7      0.00000   0.00000   0.00000   0.00000
  13   31531.6    317.1      0.00000   0.00000  -0.00000   0.00000
  14   31608.3    316.4      0.62433  -0.00205   0.00915  -0.01311
  15   31760.2    314.9      0.04300   0.00881   0.05196  -0.00832
  16   31814.0    314.3      1.18720   0.01039  -0.00148  -0.00800
  17   31884.3    313.6     -0.34719  -0.01540  -0.01353   0.01101
  18   31998.7    312.5     -0.00000  -0.00000   0.00000   0.00000
  19   32129.2    311.2      0.37924   0.00630   0.01312  -0.02144
  20   32180.8    310.7     -0.00000  -0.00000   0.00000  -0.00000
  21   32270.5    309.9     -1.16908  -0.01088  -0.03292  -0.01887
  22   32552.6    307.2     -2.72571   0.01598   0.01400   0.01049
  23   32917.3    303.8     -0.79524  -0.00128  -0.01275  -0.02746
  24   33376.9    299.6     -2.88578   0.03954  -0.00445   0.07150
  25   34610.1    288.9     -0.00000   0.00000  -0.00000   0.00000
  26   34805.7    287.3      0.00000   0.00000   0.00000   0.00000
  27   35124.7    284.7     -0.00000   0.00000   0.00000   0.00000
  28   35380.6    282.6      0.00000   0.00000  -0.00000  -0.00000
  29   35520.9    281.5     -0.00000  -0.00000  -0.00000  -0.00000
  30   35558.3    281.2      0.00000  -0.00000  -0.00000  -0.00000
  31   35912.3    278.5     -1.73917   0.01256   0.01944   0.02391
  32   35949.8    278.2     -0.60800   0.00810   0.00613   0.02006
  33   35982.1    277.9      3.19829   0.05460  -0.07779  -0.03282
  34   36051.8    277.4      0.00000  -0.00000  -0.00000   0.00000
  35   36101.2    277.0      1.95461  -0.01328  -0.01647   0.06007
  36   36148.7    276.6      0.00000  -0.00000  -0.00000   0.00000
  37   36171.2    276.5      0.00000  -0.00000  -0.00000   0.00000
  38   36541.1    273.7     -0.66916  -0.00825   0.03864   0.01378
  39   36590.5    273.3     -0.00000  -0.00000  -0.00000   0.00000
  40   36798.8    271.7     -0.00000   0.00000   0.00000   0.00000
  41   36803.8    271.7     -1.87848   0.04567   0.00269   0.00736
  42   36949.3    270.6     -3.80373  -0.04880  -0.06319   0.03388
  43   37061.6    269.8      0.00000   0.00000  -0.00000   0.00000
  44   37089.2    269.6      3.70696  -0.03843   0.00637  -0.06925
  45   37168.9    269.0     -1.21730  -0.01912   0.01309  -0.04253
  46   37223.7    268.6      0.00000   0.00000   0.00000   0.00000
  47   37381.2    267.5     -0.00000   0.00000  -0.00000   0.00000
  48   37494.4    266.7     -0.00000   0.00000   0.00000   0.00000
  49   37553.7    266.3     -1.99083   0.00634  -0.04986  -0.01339
  50   38060.5    262.7     -3.54317  -0.07178   0.01660   0.01388
  51   38326.3    260.9     -0.00000   0.00000   0.00000  -0.00000
  52   38613.9    259.0     -0.00000  -0.00000  -0.00000   0.00000
  53   38851.5    257.4     -0.00000  -0.00000  -0.00000   0.00000
  54   38884.1    257.2      0.07127   0.03441  -0.00602   0.01244
  55   38913.8    257.0     -0.00000  -0.00000  -0.00000  -0.00000
  56   39037.5    256.2      1.48041  -0.00546  -0.08922   0.00024
  57   39123.0    255.6      0.00000   0.00000  -0.00000  -0.00000
  58   39187.5    255.2      0.00000   0.00000  -0.00000   0.00000
  59   39192.9    255.1      1.54531  -0.01510   0.02788  -0.02098
  60   39201.5    255.1      0.00000   0.00000  -0.00000   0.00000

------------------------------------------------------------------------------------------------------
                COMBINED ELECTRIC DIPOLE + MAGNETIC DIPOLE + ELECTRIC QUADRUPOLE SPECTRUM
------------------------------------------------------------------------------------------------------
State  Energy     Wavelength  D2        m2        Q2         D2+m2+Q2       D2/TOT    m2/TOT    Q2/TOT   
       (cm-1)       (nm)              (*1e6)    (*1e6)                                                   
------------------------------------------------------------------------------------------------------
   1   29840.6    335.1   0.00000   0.00000   0.00000   0.00000000000000   0.00000   0.00000   0.00000
   2   29979.7    333.6   0.00000   0.00000   0.00000   0.00000000000000   0.00000   0.00000   0.00000
   3   30349.5    329.5   0.00000   0.00000   0.00000   0.00000000000000   0.00000   0.00000   0.00000
   4   30573.6    327.1   0.00000   0.00000   0.00000   0.00000000000000   0.00000   0.00000   0.00000
   5   30683.1    325.9   0.00000   0.00000   0.00000   0.00000000000000   0.00000   0.00000   0.00000
   6   30771.0    325.0   0.00388   0.00421   0.01535   0.00388076650523   0.99999   0.00000   0.00000
   7   30778.4    324.9   0.00000   0.00000   0.00000   0.00000000000000   0.00000   0.00000   0.00000
   8   30864.6    324.0   0.00000   0.00000   0.00000   0.00000000000000   0.00000   0.00000   0.00000
   9   30888.7    323.7   0.00084   0.01925   0.00056   0.00084417406748   0.99998   0.00002   0.00000
  10   31109.3    321.4   0.00000   0.00000   0.00000   0.00000000000000   0.00000   0.00000   0.00000
  11   31259.1    319.9   0.00050   0.00351   0.00075   0.00050339543252   0.99999   0.00001   0.00000
  12   31478.5    317.7   0.00000   0.00000   0.00000   0.00000000000000   0.00000   0.00000   0.00000
  13   31531.6    317.1   0.00000   0.00000   0.00000   0.00000000000000   0.00000   0.00000   0.00000
  14   31608.3    316.4   0.00232   0.00133   0.00346   0.00232252716578   1.00000   0.00000   0.00000
  15   31760.2    314.9   0.00131   0.01462   0.00656   0.00131328703128   0.99998   0.00001   0.00000
  16   31814.0    314.3   0.01899   0.00090   0.05532   0.01899270143881   1.00000   0.00000   0.00000
  17   31884.3    313.6   0.00507   0.00279   0.01310   0.00507132862540   1.00000   0.00000   0.00000
  18   31998.7    312.5   0.00000   0.00000   0.00000   0.00000000000000   0.00000   0.00000   0.00000
  19   32129.2    311.2   0.00264   0.00349   0.01274   0.00263726774636   0.99999   0.00000   0.00000
  20   32180.8    310.7   0.00000   0.00000   0.00000   0.00000000000000   0.00000   0.00000   0.00000
  21   32270.5    309.9   0.01212   0.00813   0.03972   0.01212443649132   1.00000   0.00000   0.00000
  22   32552.6    307.2   0.02108   0.00296   0.06104   0.02108471200750   1.00000   0.00000   0.00000
  23   32917.3    303.8   0.02466   0.00489   0.04958   0.02466148878496   1.00000   0.00000   0.00000
  24   33376.9    299.6   0.00622   0.03615   0.03739   0.00622423497710   0.99999   0.00001   0.00001
  25   34610.1    288.9   0.00000   0.00000   0.00000   0.00000000000000   0.00000   0.00000   0.00000
  26   34805.7    287.3   0.00000   0.00000   0.00000   0.00000000000000   0.00000   0.00000   0.00000
  27   35124.7    284.7   0.00000   0.00000   0.00000   0.00000000000000   0.00000   0.00000   0.00000
  28   35380.6    282.6   0.00000   0.00000   0.00000   0.00000000000000   0.00000   0.00000   0.00000
  29   35520.9    281.5   0.00000   0.00000   0.00000   0.00000000000000   0.00000   0.00000   0.00000
  30   35558.3    281.2   0.00000   0.00000   0.00000   0.00000000000000   0.00000   0.00000   0.00000
  31   35912.3    278.5   0.00379   0.00643   0.04225   0.00378821966819   0.99999   0.00000   0.00001
  32   35949.8    278.2   0.00300   0.00294   0.03572   0.00300329840165   0.99999   0.00000   0.00001
  33   35982.1    277.9   0.00632   0.05884   0.02984   0.00631513968784   0.99999   0.00001   0.00000
  34   36051.8    277.4   0.00000   0.00000   0.00000   0.00000000000000   0.00000   0.00000   0.00000
  35   36101.2    277.0   0.00422   0.02369   0.02012   0.00421902657118   0.99999   0.00001   0.00000
  36   36148.7    276.6   0.00000   0.00000   0.00000   0.00000000000000   0.00000   0.00000   0.00000
  37   36171.2    276.5   0.00000   0.00000   0.00000   0.00000000000000   0.00000   0.00000   0.00000
  38   36541.1    273.7   0.00405   0.01035   0.03991   0.00404797854260   0.99999   0.00000   0.00001
  39   36590.5    273.3   0.00000   0.00000   0.00000   0.00000000000000   0.00000   0.00000   0.00000
  40   36798.8    271.7   0.00000   0.00000   0.00000   0.00000000000000   0.00000   0.00000   0.00000
  41   36803.8    271.7   0.00812   0.01278   0.03999   0.00811823806123   0.99999   0.00000   0.00000
  42   36949.3    270.6   0.00744   0.04496   0.03599   0.00744256997689   0.99999   0.00001   0.00000
  43   37061.6    269.8   0.00000   0.00000   0.00000   0.00000000000000   0.00000   0.00000   0.00000
  44   37089.2    269.6   0.00832   0.03787   0.04755   0.00831958344694   0.99999   0.00000   0.00001
  45   37168.9    269.0   0.01193   0.01410   0.04889   0.01192937672346   0.99999   0.00000   0.00000
  46   37223.7    268.6   0.00000   0.00000   0.00000   0.00000000000000   0.00000   0.00000   0.00000
  47   37381.2    267.5   0.00000   0.00000   0.00000   0.00000000000000   0.00000   0.00000   0.00000
  48   37494.4    266.7   0.00000   0.00000   0.00000   0.00000000000000   0.00000   0.00000   0.00000
  49   37553.7    266.3   0.02404   0.01644   0.05660   0.02404147846182   1.00000   0.00000   0.00000
  50   38060.5    262.7   0.00020   0.03460   0.02170   0.00020299117523   0.99972   0.00017   0.00011
  51   38326.3    260.9   0.00000   0.00000   0.00000   0.00000000000000   0.00000   0.00000   0.00000
  52   38613.9    259.0   0.00000   0.00000   0.00000   0.00000000000000   0.00000   0.00000   0.00000
  53   38851.5    257.4   0.00000   0.00000   0.00000   0.00000000000000   0.00000   0.00000   0.00000
  54   38884.1    257.2   0.00018   0.00865   0.00384   0.00018188269684   0.99993   0.00005   0.00002
  55   38913.8    257.0   0.00000   0.00000   0.00000   0.00000000000000   0.00000   0.00000   0.00000
  56   39037.5    256.2   0.00574   0.05045   0.02175   0.00573878401997   0.99999   0.00001   0.00000
  57   39123.0    255.6   0.00000   0.00000   0.00000   0.00000000000000   0.00000   0.00000   0.00000
  58   39187.5    255.2   0.00000   0.00000   0.00000   0.00000000000000   0.00000   0.00000   0.00000
  59   39192.9    255.1   0.00120   0.00916   0.01144   0.00119672016032   0.99998   0.00001   0.00001
  60   39201.5    255.1   0.00000   0.00000   0.00000   0.00000000000000   0.00000   0.00000   0.00000


------------------------------------------------------------------------------------------------------
      COMBINED ELECTRIC DIPOLE + MAGNETIC DIPOLE + ELECTRIC QUADRUPOLE SPECTRUM (origin adjusted)     
------------------------------------------------------------------------------------------------------
State Energy     Wavelength  D2        m2        Q2         D2+m2+Q2       D2/TOT    m2/TOT    Q2/TOT 
      (cm-1)        (nm)              (*1e6)    (*1e6)                                                 
------------------------------------------------------------------------------------------------------
   1   29840.6    335.1   0.00000   0.00000   0.00000   0.00000000000000   0.00000   0.00000   0.00000
   2   29979.7    333.6   0.00000   0.00000   0.00000   0.00000000000000   0.00000   0.00000   0.00000
   3   30349.5    329.5   0.00000   0.00000   0.00000   0.00000000000000   0.00000   0.00000   0.00000
   4   30573.6    327.1   0.00000   0.00000   0.00000   0.00000000000000   0.00000   0.00000   0.00000
   5   30683.1    325.9   0.00000   0.00000   0.00000   0.00000000000000   0.00000   0.00000   0.00000
   6   30771.0    325.0   0.00388   0.00410   0.00423   0.00388075528063   1.00000   0.00000   0.00000
   7   30778.4    324.9   0.00000   0.00000   0.00000   0.00000000000000   0.00000   0.00000   0.00000
   8   30864.6    324.0   0.00000   0.00000   0.00000   0.00000000000000   0.00000   0.00000   0.00000
   9   30888.7    323.7   0.00084   0.01065   0.00361   0.00084416851960   0.99998   0.00001   0.00000
  10   31109.3    321.4   0.00000   0.00000   0.00000   0.00000000000000   0.00000   0.00000   0.00000
  11   31259.1    319.9   0.00050   0.00032   0.00109   0.00050339258587   1.00000   0.00000   0.00000
  12   31478.5    317.7   0.00000   0.00000   0.00000   0.00000000000000   0.00000   0.00000   0.00000
  13   31531.6    317.1   0.00000   0.00000   0.00000   0.00000000000000   0.00000   0.00000   0.00000
  14   31608.3    316.4   0.00232   0.00194   0.00060   0.00232252490761   1.00000   0.00000   0.00000
  15   31760.2    314.9   0.00131   0.00089   0.00078   0.00131326751936   1.00000   0.00000   0.00000
  16   31814.0    314.3   0.01899   0.01268   0.00726   0.01899266516777   1.00000   0.00000   0.00000
  17   31884.3    313.6   0.00507   0.00070   0.01149   0.00507132492090   1.00000   0.00000   0.00000
  18   31998.7    312.5   0.00000   0.00000   0.00000   0.00000000000000   0.00000   0.00000   0.00000
  19   32129.2    311.2   0.00264   0.00337   0.00479   0.00263725967429   1.00000   0.00000   0.00000
  20   32180.8    310.7   0.00000   0.00000   0.00000   0.00000000000000   0.00000   0.00000   0.00000
  21   32270.5    309.9   0.01212   0.01282   0.03252   0.01212443397923   1.00000   0.00000   0.00000
  22   32552.6    307.2   0.02108   0.01079   0.01353   0.02108467233857   1.00000   0.00000   0.00000
  23   32917.3    303.8   0.02466   0.01290   0.01024   0.02466145745818   1.00000   0.00000   0.00000
  24   33376.9    299.6   0.00622   0.02064   0.02820   0.00622421027187   0.99999   0.00000   0.00000
  25   34610.1    288.9   0.00000   0.00000   0.00000   0.00000000000000   0.00000   0.00000   0.00000
  26   34805.7    287.3   0.00000   0.00000   0.00000   0.00000000000000   0.00000   0.00000   0.00000
  27   35124.7    284.7   0.00000   0.00000   0.00000   0.00000000000000   0.00000   0.00000   0.00000
  28   35380.6    282.6   0.00000   0.00000   0.00000   0.00000000000000   0.00000   0.00000   0.00000
  29   35520.9    281.5   0.00000   0.00000   0.00000   0.00000000000000   0.00000   0.00000   0.00000
  30   35558.3    281.2   0.00000   0.00000   0.00000   0.00000000000000   0.00000   0.00000   0.00000
  31   35912.3    278.5   0.00379   0.00779   0.03301   0.00378821179139   0.99999   0.00000   0.00001
  32   35949.8    278.2   0.00300   0.00497   0.02869   0.00300329339589   0.99999   0.00000   0.00001
  33   35982.1    277.9   0.00632   0.01666   0.02643   0.00631509409291   0.99999   0.00000   0.00000
  34   36051.8    277.4   0.00000   0.00000   0.00000   0.00000000000000   0.00000   0.00000   0.00000
  35   36101.2    277.0   0.00422   0.02043   0.01903   0.00421902222514   0.99999   0.00000   0.00000
  36   36148.7    276.6   0.00000   0.00000   0.00000   0.00000000000000   0.00000   0.00000   0.00000
  37   36171.2    276.5   0.00000   0.00000   0.00000   0.00000000000000   0.00000   0.00000   0.00000
  38   36541.1    273.7   0.00405   0.00178   0.03791   0.00404796796637   0.99999   0.00000   0.00001
  39   36590.5    273.3   0.00000   0.00000   0.00000   0.00000000000000   0.00000   0.00000   0.00000
  40   36798.8    271.7   0.00000   0.00000   0.00000   0.00000000000000   0.00000   0.00000   0.00000
  41   36803.8    271.7   0.00812   0.02699   0.01250   0.00811822477460   1.00000   0.00000   0.00000
  42   36949.3    270.6   0.00744   0.02374   0.01648   0.00744252925772   0.99999   0.00000   0.00000
  43   37061.6    269.8   0.00000   0.00000   0.00000   0.00000000000000   0.00000   0.00000   0.00000
  44   37089.2    269.6   0.00832   0.02681   0.01206   0.00831953689330   1.00000   0.00000   0.00000
  45   37168.9    269.0   0.01193   0.00748   0.02088   0.01192934208380   1.00000   0.00000   0.00000
  46   37223.7    268.6   0.00000   0.00000   0.00000   0.00000000000000   0.00000   0.00000   0.00000
  47   37381.2    267.5   0.00000   0.00000   0.00000   0.00000000000000   0.00000   0.00000   0.00000
  48   37494.4    266.7   0.00000   0.00000   0.00000   0.00000000000000   0.00000   0.00000   0.00000
  49   37553.7    266.3   0.02404   0.01414   0.05303   0.02404147259174   1.00000   0.00000   0.00000
  50   38060.5    262.7   0.00020   0.01489   0.01406   0.00020296381984   0.99986   0.00007   0.00007
  51   38326.3    260.9   0.00000   0.00000   0.00000   0.00000000000000   0.00000   0.00000   0.00000
  52   38613.9    259.0   0.00000   0.00000   0.00000   0.00000000000000   0.00000   0.00000   0.00000
  53   38851.5    257.4   0.00000   0.00000   0.00000   0.00000000000000   0.00000   0.00000   0.00000
  54   38884.1    257.2   0.00018   0.00159   0.00479   0.00018187657739   0.99996   0.00001   0.00003
  55   38913.8    257.0   0.00000   0.00000   0.00000   0.00000000000000   0.00000   0.00000   0.00000
  56   39037.5    256.2   0.00574   0.00889   0.02616   0.00573874685741   0.99999   0.00000   0.00000
  57   39123.0    255.6   0.00000   0.00000   0.00000   0.00000000000000   0.00000   0.00000   0.00000
  58   39187.5    255.2   0.00000   0.00000   0.00000   0.00000000000000   0.00000   0.00000   0.00000
  59   39192.9    255.1   0.00120   0.00863   0.00744   0.00119671562859   0.99999   0.00001   0.00001
  60   39201.5    255.1   0.00000   0.00000   0.00000   0.00000000000000   0.00000   0.00000   0.00000

Total run time:     9304.934 sec

           *** ORCA-CIS/TD-DFT FINISHED WITHOUT ERROR ***

Maximum memory used throughout the entire CIS-calculation: 894.3 MB

-----------------------
CIS/TD-DFT TOTAL ENERGY
-----------------------

    E(SCF)  =  -2725.543440854 Eh
    DE(CIS) =      0.135963796 Eh (Root  1)
    ----------------------------- ---------
    E(tot)  =  -2725.407477058 Eh


-------------------------   --------------------
FINAL SINGLE POINT ENERGY     -2725.407477057854
-------------------------   --------------------


                            ***************************************
                            *     ORCA property calculations      *
                            ***************************************

                                    ---------------------
                                    Active property flags
                                    ---------------------
   (+) Dipole Moment


------------------------------------------------------------------------------
                       ORCA ELECTRIC PROPERTIES CALCULATION
------------------------------------------------------------------------------

Dipole Moment Calculation                       ... on
Quadrupole Moment Calculation                   ... off
Polarizability Calculation                      ... off
GBWName                                         ... KXAS_Cu_I_APP_E2_opt.gbw
Electron density                                ... KXAS_Cu_I_APP_E2_opt.scfp
The origin for moment calculation is the CENTER OF MASS  = (-0.016204, -0.018088  0.023292)

-------------
DIPOLE MOMENT
-------------
                                X             Y             Z
Electronic contribution:     -3.74691      -4.09123       5.38202
Nuclear contribution   :      3.32190       3.70810      -4.77477
                        -----------------------------------------
Total Dipole Moment    :     -0.42500      -0.38313       0.60725
                        -----------------------------------------
Magnitude (a.u.)       :      0.83437
Magnitude (Debye)      :      2.12079



--------------------
Rotational spectrum 
--------------------
 
Rotational constants in cm-1:     0.005198     0.004778     0.004594 
Rotational constants in MHz :   155.832924   143.255481   137.718032 

 Dipole components along the rotational axes: 
x,y,z [a.u.] :     0.420172    -0.386766     0.608305 
x,y,z [Debye]:     1.067992    -0.983080     1.546189 

 

Timings for individual modules:

Sum of individual times         ...    11491.607 sec (= 191.527 min)
GTO integral calculation        ...        2.023 sec (=   0.034 min)   0.0 %
Relativistic integrals          ...       46.016 sec (=   0.767 min)   0.4 %
SCF iterations                  ...     2137.714 sec (=  35.629 min)  18.6 %
CIS module                      ...     9305.853 sec (= 155.098 min)  81.0 %
                             ****ORCA TERMINATED NORMALLY****
TOTAL RUN TIME: 0 days 3 hours 11 minutes 34 seconds 288 msec
