 Entering Gaussian System, Link 0=/apps/cent7/gaussian/g16-B.01/g16-haswell/g16/g16
 Initial command:
 /apps/cent7/gaussian/g16-B.01/g16-haswell/g16/l1.exe "/scratch/bell/jaguiarc/gaussian/Gau-110649.inp" -scrdir="/scratch/bell/jaguiarc/gaussian/"
 Entering Link 1 = /apps/cent7/gaussian/g16-B.01/g16-haswell/g16/l1.exe PID=    110651.
  
 Copyright (c) 1988-2017, Gaussian, Inc.  All Rights Reserved.
  
 This is part of the Gaussian(R) 16 program.  It is based on
 the Gaussian(R) 09 system (copyright 2009, Gaussian, Inc.),
 the Gaussian(R) 03 system (copyright 2003, Gaussian, Inc.),
 the Gaussian(R) 98 system (copyright 1998, Gaussian, Inc.),
 the Gaussian(R) 94 system (copyright 1995, Gaussian, Inc.),
 the Gaussian 92(TM) system (copyright 1992, Gaussian, Inc.),
 the Gaussian 90(TM) system (copyright 1990, Gaussian, Inc.),
 the Gaussian 88(TM) system (copyright 1988, Gaussian, Inc.),
 the Gaussian 86(TM) system (copyright 1986, Carnegie Mellon
 University), and the Gaussian 82(TM) system (copyright 1983,
 Carnegie Mellon University). Gaussian is a federally registered
 trademark of Gaussian, Inc.
  
 This software contains proprietary and confidential information,
 including trade secrets, belonging to Gaussian, Inc.
  
 This software is provided under written license and may be
 used, copied, transmitted, or stored only in accord with that
 written license.
  
 The following legend is applicable only to US Government
 contracts under FAR:
  
                    RESTRICTED RIGHTS LEGEND
  
 Use, reproduction and disclosure by the US Government is
 subject to restrictions as set forth in subparagraphs (a)
 and (c) of the Commercial Computer Software - Restricted
 Rights clause in FAR 52.227-19.
  
 Gaussian, Inc.
 340 Quinnipiac St., Bldg. 40, Wallingford CT 06492
  
  
 ---------------------------------------------------------------
 Warning -- This program may not be used in any manner that
 competes with the business of Gaussian, Inc. or will provide
 assistance to any competitor of Gaussian, Inc.  The licensee
 of this program is prohibited from giving any competitor of
 Gaussian, Inc. access to this program.  By using this program,
 the user acknowledges that Gaussian, Inc. is engaged in the
 business of creating and licensing software in the field of
 computational chemistry and represents and warrants to the
 licensee that it is not a competitor of Gaussian, Inc. and that
 it will not use this program in any manner prohibited above.
 ---------------------------------------------------------------
  

 Cite this work as:
 Gaussian 16, Revision B.01,
 M. J. Frisch, G. W. Trucks, H. B. Schlegel, G. E. Scuseria, 
 M. A. Robb, J. R. Cheeseman, G. Scalmani, V. Barone, 
 G. A. Petersson, H. Nakatsuji, X. Li, M. Caricato, A. V. Marenich, 
 J. Bloino, B. G. Janesko, R. Gomperts, B. Mennucci, H. P. Hratchian, 
 J. V. Ortiz, A. F. Izmaylov, J. L. Sonnenberg, D. Williams-Young, 
 F. Ding, F. Lipparini, F. Egidi, J. Goings, B. Peng, A. Petrone, 
 T. Henderson, D. Ranasinghe, V. G. Zakrzewski, J. Gao, N. Rega, 
 G. Zheng, W. Liang, M. Hada, M. Ehara, K. Toyota, R. Fukuda, 
 J. Hasegawa, M. Ishida, T. Nakajima, Y. Honda, O. Kitao, H. Nakai, 
 T. Vreven, K. Throssell, J. A. Montgomery, Jr., J. E. Peralta, 
 F. Ogliaro, M. J. Bearpark, J. J. Heyd, E. N. Brothers, K. N. Kudin, 
 V. N. Staroverov, T. A. Keith, R. Kobayashi, J. Normand, 
 K. Raghavachari, A. P. Rendell, J. C. Burant, S. S. Iyengar, 
 J. Tomasi, M. Cossi, J. M. Millam, M. Klene, C. Adamo, R. Cammi, 
 J. W. Ochterski, R. L. Martin, K. Morokuma, O. Farkas, 
 J. B. Foresman, and D. J. Fox, Gaussian, Inc., Wallingford CT, 2016.
 
 ******************************************
 Gaussian 16:  ES64L-G16RevB.01 20-Dec-2017
                 7-Nov-2024 
 ******************************************
 %NProcS=20
 Will use up to   20 processors via shared memory.
 --------------------
 # opt freq hf/sto-3g
 --------------------
 1/18=20,19=15,38=1/1,3;
 2/9=110,12=2,17=6,18=5,40=1/2;
 3/6=3,11=9,25=1,30=1,71=1/1,2,3;
 4//1;
 5/5=2,38=5/2;
 6/7=2,8=2,9=2,10=2,28=1/1;
 7//1,2,3,16;
 1/18=20,19=15/3(2);
 2/9=110/2;
 99//99;
 2/9=110/2;
 3/6=3,11=9,25=1,30=1,71=1/1,2,3;
 4/5=5,16=3,69=1/1;
 5/5=2,38=5/2;
 7//1,2,3,16;
 1/18=20,19=15/3(-5);
 2/9=110/2;
 6/7=2,8=2,9=2,10=2,19=2,28=1/1;
 99/9=1/99;
 --------
 polimero
 --------
 Symbolic Z-matrix:
 Charge =  0 Multiplicity = 1
 H                     0.        0.       -0.8 
 C                     0.        0.        0. 
 Cl                    0.       -1.6       0. 
 H                     1.2       0.6       0.8 
 C                     1.2       0.6       0. 
 H                     1.2       1.4       0. 
 H                     2.4       0.       -0.8 
 C                     2.4       0.        0. 
 Cl                    2.4      -1.6       0. 
 H                     3.6       0.6       0.8 
 C                     3.6       0.6       0. 
 H                     3.6       1.4       0. 
 H                     4.8       0.       -0.8 
 C                     4.8       0.        0. 
 Cl                    4.8      -1.6       0. 
 

 GradGradGradGradGradGradGradGradGradGradGradGradGradGradGradGradGradGrad
 Berny optimization.
 Initialization pass.
                           ----------------------------
                           !    Initial Parameters    !
                           ! (Angstroms and Degrees)  !
 --------------------------                            --------------------------
 ! Name  Definition              Value          Derivative Info.                !
 --------------------------------------------------------------------------------
 ! R1    R(1,2)                  0.8            estimate D2E/DX2                !
 ! R2    R(2,3)                  1.6            estimate D2E/DX2                !
 ! R3    R(2,5)                  1.3416         estimate D2E/DX2                !
 ! R4    R(4,5)                  0.8            estimate D2E/DX2                !
 ! R5    R(5,6)                  0.8            estimate D2E/DX2                !
 ! R6    R(5,8)                  1.3416         estimate D2E/DX2                !
 ! R7    R(7,8)                  0.8            estimate D2E/DX2                !
 ! R8    R(8,9)                  1.6            estimate D2E/DX2                !
 ! R9    R(8,11)                 1.3416         estimate D2E/DX2                !
 ! R10   R(10,11)                0.8            estimate D2E/DX2                !
 ! R11   R(11,12)                0.8            estimate D2E/DX2                !
 ! R12   R(11,14)                1.3416         estimate D2E/DX2                !
 ! R13   R(13,14)                0.8            estimate D2E/DX2                !
 ! R14   R(14,15)                1.6            estimate D2E/DX2                !
 ! A1    A(1,2,3)               90.0            estimate D2E/DX2                !
 ! A2    A(1,2,5)               90.0            estimate D2E/DX2                !
 ! A3    A(3,2,5)              116.5651         estimate D2E/DX2                !
 ! A4    A(2,5,4)               90.0            estimate D2E/DX2                !
 ! A5    A(2,5,6)              116.5651         estimate D2E/DX2                !
 ! A6    A(2,5,8)              126.8699         estimate D2E/DX2                !
 ! A7    A(4,5,6)               90.0            estimate D2E/DX2                !
 ! A8    A(4,5,8)               90.0            estimate D2E/DX2                !
 ! A9    A(6,5,8)              116.5651         estimate D2E/DX2                !
 ! A10   A(5,8,7)               90.0            estimate D2E/DX2                !
 ! A11   A(5,8,9)              116.5651         estimate D2E/DX2                !
 ! A12   A(5,8,11)             126.8699         estimate D2E/DX2                !
 ! A13   A(7,8,9)               90.0            estimate D2E/DX2                !
 ! A14   A(7,8,11)              90.0            estimate D2E/DX2                !
 ! A15   A(9,8,11)             116.5651         estimate D2E/DX2                !
 ! A16   A(8,11,10)             90.0            estimate D2E/DX2                !
 ! A17   A(8,11,12)            116.5651         estimate D2E/DX2                !
 ! A18   A(8,11,14)            126.8699         estimate D2E/DX2                !
 ! A19   A(10,11,12)            90.0            estimate D2E/DX2                !
 ! A20   A(10,11,14)            90.0            estimate D2E/DX2                !
 ! A21   A(12,11,14)           116.5651         estimate D2E/DX2                !
 ! A22   A(11,14,13)            90.0            estimate D2E/DX2                !
 ! A23   A(11,14,15)           116.5651         estimate D2E/DX2                !
 ! A24   A(13,14,15)            90.0            estimate D2E/DX2                !
 ! D1    D(1,2,5,4)            180.0            estimate D2E/DX2                !
 ! D2    D(1,2,5,6)             90.0            estimate D2E/DX2                !
 ! D3    D(1,2,5,8)            -90.0            estimate D2E/DX2                !
 ! D4    D(3,2,5,4)            -90.0            estimate D2E/DX2                !
 ! D5    D(3,2,5,6)            180.0            estimate D2E/DX2                !
 ! D6    D(3,2,5,8)              0.0            estimate D2E/DX2                !
 ! D7    D(2,5,8,7)             90.0            estimate D2E/DX2                !
 ! D8    D(2,5,8,9)              0.0            estimate D2E/DX2                !
 ! D9    D(2,5,8,11)           180.0            estimate D2E/DX2                !
 ! D10   D(4,5,8,7)            180.0            estimate D2E/DX2                !
 ! D11   D(4,5,8,9)             90.0            estimate D2E/DX2                !
 ! D12   D(4,5,8,11)           -90.0            estimate D2E/DX2                !
 ! D13   D(6,5,8,7)            -90.0            estimate D2E/DX2                !
 ! D14   D(6,5,8,9)            180.0            estimate D2E/DX2                !
 ! D15   D(6,5,8,11)             0.0            estimate D2E/DX2                !
 ! D16   D(5,8,11,10)           90.0            estimate D2E/DX2                !
 ! D17   D(5,8,11,12)            0.0            estimate D2E/DX2                !
 ! D18   D(5,8,11,14)          180.0            estimate D2E/DX2                !
 ! D19   D(7,8,11,10)          180.0            estimate D2E/DX2                !
 ! D20   D(7,8,11,12)           90.0            estimate D2E/DX2                !
 ! D21   D(7,8,11,14)          -90.0            estimate D2E/DX2                !
 ! D22   D(9,8,11,10)          -90.0            estimate D2E/DX2                !
 ! D23   D(9,8,11,12)          180.0            estimate D2E/DX2                !
 ! D24   D(9,8,11,14)            0.0            estimate D2E/DX2                !
 ! D25   D(8,11,14,13)          90.0            estimate D2E/DX2                !
 ! D26   D(8,11,14,15)           0.0            estimate D2E/DX2                !
 ! D27   D(10,11,14,13)        180.0            estimate D2E/DX2                !
 ! D28   D(10,11,14,15)         90.0            estimate D2E/DX2                !
 ! D29   D(12,11,14,13)        -90.0            estimate D2E/DX2                !
 ! D30   D(12,11,14,15)        180.0            estimate D2E/DX2                !
 --------------------------------------------------------------------------------
 Trust Radius=3.00D-01 FncErr=1.00D-07 GrdErr=1.00D-07 EigMax=2.50D+02 EigMin=1.00D-04
 Number of steps in this run=     78 maximum allowed number of steps=    100.
 GradGradGradGradGradGradGradGradGradGradGradGradGradGradGradGradGradGrad

                          Input orientation:                          
 ---------------------------------------------------------------------
 Center     Atomic      Atomic             Coordinates (Angstroms)
 Number     Number       Type             X           Y           Z
 ---------------------------------------------------------------------
      1          1           0        0.000000    0.000000   -0.800000
      2          6           0        0.000000    0.000000    0.000000
      3         17           0        0.000000   -1.600000    0.000000
      4          1           0        1.200000    0.600000    0.800000
      5          6           0        1.200000    0.600000    0.000000
      6          1           0        1.200000    1.400000    0.000000
      7          1           0        2.400000    0.000000   -0.800000
      8          6           0        2.400000    0.000000    0.000000
      9         17           0        2.400000   -1.600000    0.000000
     10          1           0        3.600000    0.600000    0.800000
     11          6           0        3.600000    0.600000    0.000000
     12          1           0        3.600000    1.400000    0.000000
     13          1           0        4.800000    0.000000   -0.800000
     14          6           0        4.800000    0.000000    0.000000
     15         17           0        4.800000   -1.600000    0.000000
 ---------------------------------------------------------------------
                    Distance matrix (angstroms):
                    1          2          3          4          5
     1  H    0.000000
     2  C    0.800000   0.000000
     3  Cl   1.788854   1.600000   0.000000
     4  H    2.088061   1.562050   2.630589   0.000000
     5  C    1.562050   1.341641   2.505993   0.800000   0.000000
     6  H    2.009975   1.843909   3.231099   1.131371   0.800000
     7  H    2.400000   2.529822   2.993326   2.088061   1.562050
     8  C    2.529822   2.400000   2.884441   1.562050   1.341641
     9  Cl   2.993326   2.884441   2.400000   2.630589   2.505993
    10  H    3.984972   3.736308   4.294182   2.400000   2.529822
    11  C    3.736308   3.649658   4.219005   2.529822   2.400000
    12  H    3.944617   3.862642   4.686150   2.653300   2.529822
    13  H    4.800000   4.866210   5.122499   3.984972   3.736308
    14  C    4.866210   4.800000   5.059644   3.736308   3.649658
    15  Cl   5.122499   5.059644   4.800000   4.294182   4.219005
                    6          7          8          9         10
     6  H    0.000000
     7  H    2.009975   0.000000
     8  C    1.843909   0.800000   0.000000
     9  Cl   3.231099   1.788854   1.600000   0.000000
    10  H    2.653300   2.088061   1.562050   2.630589   0.000000
    11  C    2.529822   1.562050   1.341641   2.505993   0.800000
    12  H    2.400000   2.009975   1.843909   3.231099   1.131371
    13  H    3.944617   2.400000   2.529822   2.993326   2.088061
    14  C    3.862642   2.529822   2.400000   2.884441   1.562050
    15  Cl   4.686150   2.993326   2.884441   2.400000   2.630589
                   11         12         13         14         15
    11  C    0.000000
    12  H    0.800000   0.000000
    13  H    1.562050   2.009975   0.000000
    14  C    1.341641   1.843909   0.800000   0.000000
    15  Cl   2.505993   3.231099   1.788854   1.600000   0.000000
 Stoichiometry    C5H7Cl3
 Framework group  CS[SG(CHCl),X(C4H6Cl2)]
 Deg. of freedom    21
 Full point group                 CS      NOp   2
 Largest Abelian subgroup         CS      NOp   2
 Largest concise Abelian subgroup CS      NOp   2
                         Standard orientation:                         
 ---------------------------------------------------------------------
 Center     Atomic      Atomic             Coordinates (Angstroms)
 Number     Number       Type             X           Y           Z
 ---------------------------------------------------------------------
      1          1           0       -0.790909    0.800000    2.400000
      2          6           0        0.009091    0.800000    2.400000
      3         17           0        0.009091   -0.800000    2.400000
      4          1           0        0.809091    1.400000    1.200000
      5          6           0        0.009091    1.400000    1.200000
      6          1           0        0.009091    2.200000    1.200000
      7          1           0       -0.790909    0.800000   -0.000000
      8          6           0        0.009091    0.800000   -0.000000
      9         17           0        0.009091   -0.800000    0.000000
     10          1           0        0.809091    1.400000   -1.200000
     11          6           0        0.009091    1.400000   -1.200000
     12          1           0        0.009091    2.200000   -1.200000
     13          1           0       -0.790909    0.800000   -2.400000
     14          6           0        0.009091    0.800000   -2.400000
     15         17           0        0.009091   -0.800000   -2.400000
 ---------------------------------------------------------------------
 Rotational constants (GHZ):           3.2549178           0.8475572           0.6782683
 Standard basis: STO-3G (5D, 7F)
 There are    34 symmetry adapted cartesian basis functions of A'  symmetry.
 There are    25 symmetry adapted cartesian basis functions of A"  symmetry.
 There are    34 symmetry adapted basis functions of A'  symmetry.
 There are    25 symmetry adapted basis functions of A"  symmetry.
    59 basis functions,   177 primitive gaussians,    59 cartesian basis functions
    44 alpha electrons       44 beta electrons
       nuclear repulsion energy       699.1696563094 Hartrees.



 Warning!  Cl atom    3 may be hypervalent but has no d functions.
 Warning!  Cl atom    9 may be hypervalent but has no d functions.
 Warning!  Cl atom   15 may be hypervalent but has no d functions.



 NAtoms=   15 NActive=   15 NUniq=    9 SFac= 2.78D+00 NAtFMM=   60 NAOKFM=F Big=F
 Integral buffers will be    131072 words long.
 Raffenetti 1 integral format.
 Two-electron integral symmetry is turned on.
 One-electron integrals computed using PRISM.
 NBasis=    59 RedAO= T EigKep=  8.01D-02  NBF=    34    25
 NBsUse=    59 1.00D-06 EigRej= -1.00D+00 NBFU=    34    25
 ExpMin= 1.69D-01 ExpMax= 6.01D+02 ExpMxC= 6.01D+02 IAcc=3 IRadAn=         5 AccDes= 0.00D+00
 Harris functional with IExCor=  205 and IRadAn=       5 diagonalized for initial guess.
 HarFok:  IExCor=  205 AccDes= 0.00D+00 IRadAn=         5 IDoV= 1 UseB2=F ITyADJ=14
 ICtDFT=  3500011 ScaDFX=  1.000000  1.000000  1.000000  1.000000
 FoFCou: FMM=F IPFlag=           0 FMFlag=      100000 FMFlg1=           0
         NFxFlg=           0 DoJE=T BraDBF=F KetDBF=T FulRan=T
         wScrn=  0.000000 ICntrl=       500 IOpCl=  0 I1Cent=   200000004 NGrid=           0
         NMat0=    1 NMatS0=      1 NMatT0=    0 NMatD0=    1 NMtDS0=    0 NMtDT0=    0
 Petite list used in FoFCou.
 Initial guess orbital symmetries:
       Occupied  (A') (A") (A') (A") (A') (A') (A") (A') (A') (A")
                 (A') (A') (A") (A') (A") (A') (A') (A") (A') (A")
                 (A') (A") (A') (A') (A") (A') (A") (A') (A") (A')
                 (A") (A') (A") (A') (A') (A") (A') (A") (A') (A")
                 (A') (A') (A") (A')
       Virtual   (A") (A') (A') (A") (A') (A") (A") (A') (A') (A")
                 (A') (A") (A') (A') (A")
 The electronic state of the initial guess is 1-A'.
 Requested convergence on RMS density matrix=1.00D-08 within 128 cycles.
 Requested convergence on MAX density matrix=1.00D-06.
 Requested convergence on             energy=1.00D-06.
 No special actions if energy rises.
 Integral accuracy reduced to 1.0D-05 until final iterations.
 Initial convergence to 1.0D-05 achieved.  Increase integral accuracy.
 SCF Done:  E(RHF) =  -1552.86012271     A.U. after   16 cycles
            NFock= 16  Conv=0.24D-08     -V/T= 2.0120

 **********************************************************************

            Population analysis using the SCF Density.

 **********************************************************************

 Orbital symmetries:
       Occupied  (A') (A") (A') (A') (A") (A') (A') (A") (A') (A")
                 (A') (A') (A") (A') (A') (A") (A") (A') (A') (A")
                 (A') (A") (A') (A') (A") (A') (A') (A") (A') (A")
                 (A") (A') (A") (A') (A') (A") (A') (A") (A') (A")
                 (A') (A') (A") (A')
       Virtual   (A") (A') (A') (A") (A') (A") (A') (A") (A') (A")
                 (A') (A") (A') (A') (A")
 The electronic state is 1-A'.
 Alpha  occ. eigenvalues -- -103.81514-103.78006-103.78006 -11.16122 -11.09323
 Alpha  occ. eigenvalues --  -11.09321 -11.04918 -11.04917 -10.49426 -10.45961
 Alpha  occ. eigenvalues --  -10.45947  -7.93749  -7.93334  -7.93045  -7.90331
 Alpha  occ. eigenvalues --   -7.90330  -7.89877  -7.89870  -7.89658  -7.89657
 Alpha  occ. eigenvalues --   -1.34473  -1.24439  -1.17564  -1.14137  -1.09693
 Alpha  occ. eigenvalues --   -0.94354  -0.90037  -0.87992  -0.76951  -0.76168
 Alpha  occ. eigenvalues --   -0.67055  -0.65489  -0.60216  -0.59031  -0.55993
 Alpha  occ. eigenvalues --   -0.52947  -0.52762  -0.50580  -0.46935  -0.40711
 Alpha  occ. eigenvalues --   -0.39794  -0.33762  -0.31360  -0.16657
 Alpha virt. eigenvalues --   -0.01083   0.39687   0.46558   0.48043   0.58049
 Alpha virt. eigenvalues --    0.72218   0.80697   0.83482   0.93960   1.06453
 Alpha virt. eigenvalues --    1.10124   1.17547   1.25421   1.37094   1.39005
          Condensed to atoms (all electrons):
               1          2          3          4          5          6
     1  H    0.651640   0.423281  -0.106517   0.016838  -0.114613  -0.009546
     2  C    0.423281   5.335143   0.232244  -0.091349   0.376727  -0.027684
     3  Cl  -0.106517   0.232244  16.976074  -0.002903  -0.038053   0.003425
     4  H    0.016838  -0.091349  -0.002903   0.618775   0.372836  -0.062210
     5  C   -0.114613   0.376727  -0.038053   0.372836   5.222267   0.442090
     6  H   -0.009546  -0.027684   0.003425  -0.062210   0.442090   0.492435
     7  H    0.002338  -0.005847   0.000560   0.019144  -0.092774  -0.007531
     8  C   -0.001420  -0.016085  -0.013897  -0.100625   0.333149  -0.030110
     9  Cl  -0.000873  -0.014752  -0.071149  -0.007235  -0.035290   0.002905
    10  H    0.000029  -0.000116  -0.000047   0.003654  -0.005620   0.000305
    11  C   -0.000206   0.001302   0.000016  -0.005620  -0.016450  -0.003738
    12  H    0.000014   0.000044  -0.000007   0.000305  -0.003738   0.000204
    13  H    0.000001   0.000003  -0.000003   0.000029  -0.000206   0.000014
    14  C    0.000003   0.000004  -0.000022  -0.000116   0.001302   0.000044
    15  Cl  -0.000003  -0.000022   0.000088  -0.000047   0.000016  -0.000007
               7          8          9         10         11         12
     1  H    0.002338  -0.001420  -0.000873   0.000029  -0.000206   0.000014
     2  C   -0.005847  -0.016085  -0.014752  -0.000116   0.001302   0.000044
     3  Cl   0.000560  -0.013897  -0.071149  -0.000047   0.000016  -0.000007
     4  H    0.019144  -0.100625  -0.007235   0.003654  -0.005620   0.000305
     5  C   -0.092774   0.333149  -0.035290  -0.005620  -0.016450  -0.003738
     6  H   -0.007531  -0.030110   0.002905   0.000305  -0.003738   0.000204
     7  H    0.630445   0.399753  -0.098865   0.019144  -0.092774  -0.007531
     8  C    0.399753   5.213289   0.249135  -0.100625   0.333149  -0.030110
     9  Cl  -0.098865   0.249135  17.020449  -0.007235  -0.035290   0.002905
    10  H    0.019144  -0.100625  -0.007235   0.618775   0.372836  -0.062210
    11  C   -0.092774   0.333149  -0.035290   0.372836   5.222267   0.442090
    12  H   -0.007531  -0.030110   0.002905  -0.062210   0.442090   0.492435
    13  H    0.002338  -0.001420  -0.000873   0.016838  -0.114613  -0.009546
    14  C   -0.005847  -0.016085  -0.014752  -0.091349   0.376727  -0.027684
    15  Cl   0.000560  -0.013897  -0.071149  -0.002903  -0.038053   0.003425
              13         14         15
     1  H    0.000001   0.000003  -0.000003
     2  C    0.000003   0.000004  -0.000022
     3  Cl  -0.000003  -0.000022   0.000088
     4  H    0.000029  -0.000116  -0.000047
     5  C   -0.000206   0.001302   0.000016
     6  H    0.000014   0.000044  -0.000007
     7  H    0.002338  -0.005847   0.000560
     8  C   -0.001420  -0.016085  -0.013897
     9  Cl  -0.000873  -0.014752  -0.071149
    10  H    0.016838  -0.091349  -0.002903
    11  C   -0.114613   0.376727  -0.038053
    12  H   -0.009546  -0.027684   0.003425
    13  H    0.651640   0.423281  -0.106517
    14  C    0.423281   5.335143   0.232244
    15  Cl  -0.106517   0.232244  16.976074
 Mulliken charges:
               1
     1  H    0.139035
     2  C   -0.212893
     3  Cl   0.020191
     4  H    0.238526
     5  C   -0.441641
     6  H    0.199405
     7  H    0.236886
     8  C   -0.204199
     9  Cl   0.082068
    10  H    0.238526
    11  C   -0.441641
    12  H    0.199405
    13  H    0.139035
    14  C   -0.212893
    15  Cl   0.020191
 Sum of Mulliken charges =  -0.00000
 Mulliken charges with hydrogens summed into heavy atoms:
               1
     2  C   -0.073858
     3  Cl   0.020191
     5  C   -0.003711
     8  C    0.032687
     9  Cl   0.082068
    11  C   -0.003711
    14  C   -0.073858
    15  Cl   0.020191
 Electronic spatial extent (au):  <R**2>=           1531.0557
 Charge=             -0.0000 electrons
 Dipole moment (field-independent basis, Debye):
    X=             -0.1256    Y=              0.9771    Z=              0.0000  Tot=              0.9852
 Quadrupole moment (field-independent basis, Debye-Ang):
   XX=            -63.8767   YY=            -65.3475   ZZ=            -76.4804
   XY=              0.8902   XZ=             -0.0000   YZ=              0.0000
 Traceless Quadrupole moment (field-independent basis, Debye-Ang):
   XX=              4.6915   YY=              3.2207   ZZ=             -7.9122
   XY=              0.8902   XZ=             -0.0000   YZ=              0.0000
 Octapole moment (field-independent basis, Debye-Ang**2):
  XXX=              0.1103  YYY=            -12.9466  ZZZ=             -0.0000  XYY=              1.1188
  XXY=             -4.3188  XXZ=              0.0000  XZZ=             -0.8348  YZZ=            -11.0405
  YYZ=             -0.0000  XYZ=             -0.0000
 Hexadecapole moment (field-independent basis, Debye-Ang**3):
 XXXX=            -65.7486 YYYY=           -406.9139 ZZZZ=          -1473.5996 XXXY=             -0.0745
 XXXZ=             -0.0000 YYYX=              3.7674 YYYZ=             -0.0000 ZZZX=             -0.0000
 ZZZY=             -0.0000 XXYY=            -83.4256 XXZZ=           -240.4299 YYZZ=           -319.4869
 XXYZ=             -0.0000 YYXZ=              0.0000 ZZXY=              0.1699
 N-N= 6.991696563094D+02 E-N=-5.065673462681D+03  KE= 1.534462095068D+03
 Symmetry A'   KE= 9.673489291442D+02
 Symmetry A"   KE= 5.671131659236D+02
 Calling FoFJK, ICntrl=      2127 FMM=F ISym2X=1 I1Cent= 0 IOpClX= 0 NMat=1 NMatS=1 NMatT=0.
 ***** Axes restored to original set *****
 -------------------------------------------------------------------
 Center     Atomic                   Forces (Hartrees/Bohr)
 Number     Number              X              Y              Z
 -------------------------------------------------------------------
      1        1          -0.125150934    0.045440013   -0.574426668
      2        6          -0.105526245    0.021996181    0.331131235
      3       17          -0.083412695   -0.190658537    0.064733685
      4        1           0.001184208    0.038778888    0.581483254
      5        6          -0.025368098   -0.311909821   -0.132943971
      6        1           0.002270394    0.564555651   -0.087916585
      7        1           0.000000000   -0.019680392   -0.570107001
      8        6           0.000000000   -0.091826878    0.156081103
      9       17           0.000000000   -0.224897478    0.049903998
     10        1          -0.001184208    0.038778888    0.581483254
     11        6           0.025368098   -0.311909821   -0.132943971
     12        1          -0.002270394    0.564555651   -0.087916585
     13        1           0.125150934    0.045440013   -0.574426668
     14        6           0.105526245    0.021996181    0.331131235
     15       17           0.083412695   -0.190658537    0.064733685
 -------------------------------------------------------------------
 Cartesian Forces:  Max     0.581483254 RMS     0.258524603

 GradGradGradGradGradGradGradGradGradGradGradGradGradGradGradGradGradGrad
 Berny optimization.
 FormGI is forming the generalized inverse of G from B-inverse, IUseBI=4.
 Internal  Forces:  Max     0.581483254 RMS     0.222904259
 Search for a local minimum.
 Step number   1 out of a maximum of   78
 All quantities printed in internal units (Hartrees-Bohrs-Radians)
 Mixed Optimization -- RFO/linear search
 Second derivative matrix not updated -- first step.
 ITU=  0
     Eigenvalues ---    0.02861   0.02861   0.02861   0.02861   0.03784
     Eigenvalues ---    0.03953   0.03953   0.06882   0.06904   0.06904
     Eigenvalues ---    0.07376   0.07376   0.11620   0.12275   0.12275
     Eigenvalues ---    0.16000   0.16000   0.16000   0.16000   0.22000
     Eigenvalues ---    0.22000   0.25000   0.25000   0.25000   0.25000
     Eigenvalues ---    0.51218   0.51218   0.51218   0.56839   0.56839
     Eigenvalues ---    0.56839   0.56839   1.11153   1.11153   1.11153
     Eigenvalues ---    1.11153   1.11153   1.11153   1.11153
 RFO step:  Lambda=-1.47022782D+00 EMin= 2.86073633D-02
 Linear search not attempted -- first point.
 Maximum step size (   0.300) exceeded in Quadratic search.
    -- Step size scaled by   0.376
 Iteration  1 RMS(Cart)=  0.11348294 RMS(Int)=  0.00417138
 Iteration  2 RMS(Cart)=  0.00736943 RMS(Int)=  0.00031273
 Iteration  3 RMS(Cart)=  0.00003961 RMS(Int)=  0.00031220
 Iteration  4 RMS(Cart)=  0.00000002 RMS(Int)=  0.00031220
 ClnCor:  largest displacement from symmetrization is 2.16D-10 for atom    15.
 Variable       Old X    -DE/DX   Delta X   Delta X   Delta X     New X
                                 (Linear)    (Quad)   (Total)
    R1        1.51178   0.57443   0.00000   0.08369   0.08369   1.59547
    R2        3.02356   0.19066   0.00000   0.03618   0.03618   3.05974
    R3        2.53533   0.33604   0.00000   0.06200   0.06200   2.59734
    R4        1.51178   0.58148   0.00000   0.08472   0.08472   1.59650
    R5        1.51178   0.56456   0.00000   0.08225   0.08225   1.59404
    R6        2.53533   0.37575   0.00000   0.06933   0.06933   2.60467
    R7        1.51178   0.57011   0.00000   0.08306   0.08306   1.59484
    R8        3.02356   0.22490   0.00000   0.04267   0.04267   3.06624
    R9        2.53533   0.37575   0.00000   0.06933   0.06933   2.60467
   R10        1.51178   0.58148   0.00000   0.08472   0.08472   1.59650
   R11        1.51178   0.56456   0.00000   0.08225   0.08225   1.59404
   R12        2.53533   0.33604   0.00000   0.06200   0.06200   2.59734
   R13        1.51178   0.57443   0.00000   0.08369   0.08369   1.59547
   R14        3.02356   0.19066   0.00000   0.03618   0.03618   3.05974
    A1        1.57080   0.01950   0.00000   0.00547   0.00416   1.57496
    A2        1.57080   0.14722   0.00000   0.03440   0.03376   1.60455
    A3        2.03444   0.25220   0.00000   0.05515   0.05509   2.08954
    A4        1.57080   0.01960   0.00000   0.00491   0.00460   1.57540
    A5        2.03444  -0.10849   0.00000  -0.02413  -0.02416   2.01029
    A6        2.21430   0.22041   0.00000   0.04905   0.04902   2.26332
    A7        1.57080   0.00226   0.00000   0.00064   0.00081   1.57161
    A8        1.57080   0.02632   0.00000   0.00647   0.00623   1.57702
    A9        2.03444  -0.11192   0.00000  -0.02492  -0.02495   2.00949
   A10        1.57080   0.01632   0.00000   0.00406   0.00426   1.57505
   A11        2.03444   0.11093   0.00000   0.02426   0.02423   2.05868
   A12        2.21430  -0.22186   0.00000  -0.04851  -0.04853   2.16576
   A13        1.57080   0.00792   0.00000   0.00200   0.00184   1.57264
   A14        1.57080   0.01632   0.00000   0.00406   0.00426   1.57505
   A15        2.03444   0.11093   0.00000   0.02426   0.02423   2.05868
   A16        1.57080   0.02632   0.00000   0.00647   0.00623   1.57702
   A17        2.03444  -0.11192   0.00000  -0.02492  -0.02495   2.00949
   A18        2.21430   0.22041   0.00000   0.04905   0.04902   2.26332
   A19        1.57080   0.00226   0.00000   0.00064   0.00081   1.57161
   A20        1.57080   0.01960   0.00000   0.00491   0.00460   1.57540
   A21        2.03444  -0.10849   0.00000  -0.02413  -0.02416   2.01029
   A22        1.57080   0.14722   0.00000   0.03440   0.03376   1.60455
   A23        2.03444   0.25220   0.00000   0.05515   0.05509   2.08954
   A24        1.57080   0.01950   0.00000   0.00547   0.00416   1.57496
    D1        3.14159  -0.05463   0.00000  -0.01331  -0.01377   3.12782
    D2        1.57080  -0.06696   0.00000  -0.01648  -0.01683   1.55396
    D3       -1.57080  -0.00703   0.00000  -0.00154  -0.00186  -1.57266
    D4       -1.57080   0.04079   0.00000   0.01000   0.01030  -1.56050
    D5        3.14159   0.02845   0.00000   0.00684   0.00724  -3.13435
    D6       -0.00000   0.08838   0.00000   0.02178   0.02221   0.02221
    D7        1.57080  -0.03902   0.00000  -0.00970  -0.00970   1.56110
    D8        0.00000  -0.05604   0.00000  -0.01396  -0.01405  -0.01405
    D9        3.14159  -0.00639   0.00000  -0.00158  -0.00168   3.13991
   D10        3.14159   0.00522   0.00000   0.00129   0.00145  -3.14015
   D11        1.57080  -0.01180   0.00000  -0.00297  -0.00290   1.56790
   D12       -1.57080   0.03785   0.00000   0.00941   0.00947  -1.56133
   D13       -1.57080   0.02091   0.00000   0.00524   0.00526  -1.56553
   D14        3.14159   0.00389   0.00000   0.00097   0.00092  -3.14068
   D15        0.00000   0.05355   0.00000   0.01336   0.01328   0.01328
   D16        1.57080  -0.03785   0.00000  -0.00941  -0.00947   1.56133
   D17        0.00000  -0.05355   0.00000  -0.01336  -0.01328  -0.01328
   D18        3.14159   0.00639   0.00000   0.00158   0.00168  -3.13991
   D19        3.14159  -0.00522   0.00000  -0.00129  -0.00145   3.14015
   D20        1.57080  -0.02091   0.00000  -0.00524  -0.00526   1.56553
   D21       -1.57080   0.03902   0.00000   0.00970   0.00970  -1.56110
   D22       -1.57080   0.01180   0.00000   0.00297   0.00290  -1.56790
   D23        3.14159  -0.00389   0.00000  -0.00097  -0.00092   3.14068
   D24        0.00000   0.05604   0.00000   0.01396   0.01405   0.01405
   D25        1.57080   0.00703   0.00000   0.00154   0.00186   1.57266
   D26        0.00000  -0.08838   0.00000  -0.02178  -0.02221  -0.02221
   D27        3.14159   0.05463   0.00000   0.01331   0.01377  -3.12782
   D28        1.57080  -0.04079   0.00000  -0.01000  -0.01030   1.56050
   D29       -1.57080   0.06696   0.00000   0.01648   0.01683  -1.55396
   D30        3.14159  -0.02845   0.00000  -0.00684  -0.00724   3.13435
         Item               Value     Threshold  Converged?
 Maximum Force            0.581483     0.000450     NO 
 RMS     Force            0.222904     0.000300     NO 
 Maximum Displacement     0.559365     0.001800     NO 
 RMS     Displacement     0.118534     0.001200     NO 
 Predicted change in Energy=-5.175658D-01
 GradGradGradGradGradGradGradGradGradGradGradGradGradGradGradGradGradGrad

                          Input orientation:                          
 ---------------------------------------------------------------------
 Center     Atomic      Atomic             Coordinates (Angstroms)
 Number     Number       Type             X           Y           Z
 ---------------------------------------------------------------------
      1          1           0       -0.114835    0.046961   -0.845690
      2          6           0       -0.088550    0.052147   -0.001827
      3         17           0       -0.296003   -1.553487    0.021241
      4          1           0        1.181606    0.581722    0.846585
      5          6           0        1.182504    0.575145    0.001778
      6          1           0        1.223970    1.417622   -0.005420
      7          1           0        2.400000   -0.075702   -0.844424
      8          6           0        2.400000   -0.070990   -0.000481
      9         17           0        2.400000   -1.693528    0.011570
     10          1           0        3.618394    0.581722    0.846585
     11          6           0        3.617496    0.575145    0.001778
     12          1           0        3.576030    1.417622   -0.005420
     13          1           0        4.914835    0.046961   -0.845690
     14          6           0        4.888550    0.052147   -0.001827
     15         17           0        5.096003   -1.553487    0.021241
 ---------------------------------------------------------------------
                    Distance matrix (angstroms):
                    1          2          3          4          5
     1  H    0.000000
     2  C    0.844288   0.000000
     3  Cl   1.829160   1.619144   0.000000
     4  H    2.197844   1.616647   2.724635   0.000000
     5  C    1.637152   1.374452   2.591802   0.844833   0.000000
     6  H    2.092167   1.894002   3.337442   1.194335   0.843527
     7  H    2.517825   2.630437   3.194003   2.185452   1.619246
     8  C    2.655689   2.491595   3.076801   1.621123   1.378330
     9  Cl   3.176254   3.039809   2.699655   2.712654   2.574737
    10  H    4.133614   3.839491   4.534625   2.436789   2.578237
    11  C    3.863609   3.742769   4.454990   2.578237   2.434993
    12  H    4.025823   3.910714   4.880660   2.675427   2.537477
    13  H    5.029669   5.074051   5.519587   4.133614   3.863609
    14  C    5.074051   4.977100   5.427540   3.839491   3.742769
    15  Cl   5.519587   5.427540   5.392007   4.534625   4.454990
                    6          7          8          9         10
     6  H    0.000000
     7  H    2.077737   0.000000
     8  C    1.897113   0.843955   0.000000
     9  Cl   3.326047   1.830324   1.622582   0.000000
    10  H    2.675427   2.185452   1.621123   2.712654   0.000000
    11  C    2.537477   1.619246   1.378330   2.574737   0.844833
    12  H    2.352060   2.077737   1.897113   3.326047   1.194335
    13  H    4.025823   2.517825   2.655689   3.176254   2.197844
    14  C    3.910714   2.630437   2.491595   3.039809   1.616647
    15  Cl   4.880660   3.194003   3.076801   2.699655   2.724635
                   11         12         13         14         15
    11  C    0.000000
    12  H    0.843527   0.000000
    13  H    1.637152   2.092167   0.000000
    14  C    1.374452   1.894002   0.844288   0.000000
    15  Cl   2.591802   3.337442   1.829160   1.619144   0.000000
 Stoichiometry    C5H7Cl3
 Framework group  CS[SG(CHCl),X(C4H6Cl2)]
 Deg. of freedom    21
 Full point group                 CS      NOp   2
 Largest Abelian subgroup         CS      NOp   2
 Largest concise Abelian subgroup CS      NOp   2
                         Standard orientation:                         
 ---------------------------------------------------------------------
 Center     Atomic      Atomic             Coordinates (Angstroms)
 Number     Number       Type             X           Y           Z
 ---------------------------------------------------------------------
      1          1           0       -0.838606    0.855688    2.514835
      2          6           0        0.005270    0.853157    2.488550
      3         17           0        0.013657   -0.752620    2.696003
      4          1           0        0.858488    1.374953    1.218394
      5          6           0        0.013657    1.376101    1.217496
      6          1           0        0.014161    2.218609    1.176030
      7          1           0       -0.838461    0.733018    0.000000
      8          6           0        0.005489    0.730013    0.000000
      9         17           0        0.002706   -0.892566   -0.000000
     10          1           0        0.858488    1.374953   -1.218394
     11          6           0        0.013657    1.376101   -1.217496
     12          1           0        0.014161    2.218609   -1.176030
     13          1           0       -0.838606    0.855688   -2.514835
     14          6           0        0.005270    0.853157   -2.488550
     15         17           0        0.013657   -0.752620   -2.696003
 ---------------------------------------------------------------------
 Rotational constants (GHZ):           3.2533351           0.7071240           0.5857533
 Standard basis: STO-3G (5D, 7F)
 There are    34 symmetry adapted cartesian basis functions of A'  symmetry.
 There are    25 symmetry adapted cartesian basis functions of A"  symmetry.
 There are    34 symmetry adapted basis functions of A'  symmetry.
 There are    25 symmetry adapted basis functions of A"  symmetry.
    59 basis functions,   177 primitive gaussians,    59 cartesian basis functions
    44 alpha electrons       44 beta electrons
       nuclear repulsion energy       662.7486539575 Hartrees.



 Warning!  Cl atom    3 may be hypervalent but has no d functions.
 Warning!  Cl atom    9 may be hypervalent but has no d functions.
 Warning!  Cl atom   15 may be hypervalent but has no d functions.



 NAtoms=   15 NActive=   15 NUniq=    9 SFac= 2.78D+00 NAtFMM=   60 NAOKFM=F Big=F
 Integral buffers will be    131072 words long.
 Raffenetti 1 integral format.
 Two-electron integral symmetry is turned on.
 One-electron integrals computed using PRISM.
 NBasis=    59 RedAO= T EigKep=  9.76D-02  NBF=    34    25
 NBsUse=    59 1.00D-06 EigRej= -1.00D+00 NBFU=    34    25
 Initial guess from the checkpoint file:  "/scratch/bell/jaguiarc/gaussian/Gau-110651.chk"
 B after Tr=     0.000000   -0.000000   -0.000000
         Rot=    1.000000   -0.000000    0.000000    0.000621 Ang=   0.07 deg.
 Initial guess orbital symmetries:
       Occupied  (A') (A") (A') (A') (A") (A') (A') (A") (A') (A")
                 (A') (A') (A") (A') (A') (A") (A") (A') (A') (A")
                 (A') (A") (A') (A') (A") (A') (A') (A") (A') (A")
                 (A") (A') (A") (A') (A') (A") (A') (A") (A') (A")
                 (A') (A') (A") (A')
       Virtual   (A") (A') (A') (A") (A') (A") (A') (A") (A') (A")
                 (A') (A") (A') (A') (A")
 ExpMin= 1.69D-01 ExpMax= 6.01D+02 ExpMxC= 6.01D+02 IAcc=3 IRadAn=         5 AccDes= 0.00D+00
 Harris functional with IExCor=  205 and IRadAn=       5 diagonalized for initial guess.
 HarFok:  IExCor=  205 AccDes= 0.00D+00 IRadAn=         5 IDoV= 1 UseB2=F ITyADJ=14
 ICtDFT=  3500011 ScaDFX=  1.000000  1.000000  1.000000  1.000000
 FoFCou: FMM=F IPFlag=           0 FMFlag=      100000 FMFlg1=           0
         NFxFlg=           0 DoJE=T BraDBF=F KetDBF=T FulRan=T
         wScrn=  0.000000 ICntrl=       500 IOpCl=  0 I1Cent=   200000004 NGrid=           0
         NMat0=    1 NMatS0=      1 NMatT0=    0 NMatD0=    1 NMtDS0=    0 NMtDT0=    0
 Petite list used in FoFCou.
 Requested convergence on RMS density matrix=1.00D-08 within 128 cycles.
 Requested convergence on MAX density matrix=1.00D-06.
 Requested convergence on             energy=1.00D-06.
 No special actions if energy rises.
 Integral accuracy reduced to 1.0D-05 until final iterations.
 Initial convergence to 1.0D-05 achieved.  Increase integral accuracy.
 SCF Done:  E(RHF) =  -1553.32591611     A.U. after   15 cycles
            NFock= 15  Conv=0.70D-08     -V/T= 2.0131
 Calling FoFJK, ICntrl=      2127 FMM=F ISym2X=1 I1Cent= 0 IOpClX= 0 NMat=1 NMatS=1 NMatT=0.
 ***** Axes restored to original set *****
 -------------------------------------------------------------------
 Center     Atomic                   Forces (Hartrees/Bohr)
 Number     Number              X              Y              Z
 -------------------------------------------------------------------
      1        1          -0.117323007    0.056513964   -0.428929590
      2        6          -0.036536990    0.021960632    0.202594302
      3       17          -0.055084645   -0.164738401    0.062173040
      4        1           0.003511894    0.033222035    0.436479875
      5        6          -0.038917282   -0.221634963   -0.027796413
      6        1           0.021738571    0.416990982   -0.082801751
      7        1           0.000000000   -0.019780215   -0.428143758
      8        6          -0.000000000   -0.074660740    0.048670415
      9       17           0.000000000   -0.190187544    0.056034419
     10        1          -0.003511894    0.033222035    0.436479875
     11        6           0.038917282   -0.221634963   -0.027796413
     12        1          -0.021738571    0.416990982   -0.082801751
     13        1           0.117323007    0.056513964   -0.428929590
     14        6           0.036536990    0.021960632    0.202594302
     15       17           0.055084645   -0.164738401    0.062173040
 -------------------------------------------------------------------
 Cartesian Forces:  Max     0.436479875 RMS     0.190620710

 GradGradGradGradGradGradGradGradGradGradGradGradGradGradGradGradGradGrad
 Berny optimization.
 Using GEDIIS/GDIIS optimizer.
 FormGI is forming the generalized inverse of G from B-inverse, IUseBI=4.
 Internal  Forces:  Max     0.436721276 RMS     0.160978113
 Search for a local minimum.
 Step number   2 out of a maximum of   78
 All quantities printed in internal units (Hartrees-Bohrs-Radians)
 Mixed Optimization -- RFO/linear search
 Update second derivatives using D2CorX and points    1    2
 DE= -4.66D-01 DEPred=-5.18D-01 R= 9.00D-01
 TightC=F SS=  1.41D+00  RLast= 3.05D-01 DXNew= 5.0454D-01 9.1628D-01
 Trust test= 9.00D-01 RLast= 3.05D-01 DXMaxT set to 5.05D-01
 ITU=  1  0
 Use linear search instead of GDIIS.
 Linear search step of   0.600 exceeds DXMaxT=   0.505 but not scaled.
 Quartic linear search produced a step of  2.00000.
 Iteration  1 RMS(Cart)=  0.21492673 RMS(Int)=  0.01508084
 Iteration  2 RMS(Cart)=  0.03202022 RMS(Int)=  0.00190867
 Iteration  3 RMS(Cart)=  0.00072802 RMS(Int)=  0.00187069
 Iteration  4 RMS(Cart)=  0.00000181 RMS(Int)=  0.00187069
 Iteration  5 RMS(Cart)=  0.00000002 RMS(Int)=  0.00187069
 ClnCor:  largest displacement from symmetrization is 5.68D-11 for atom    15.
 Variable       Old X    -DE/DX   Delta X   Delta X   Delta X     New X
                                 (Linear)    (Quad)   (Total)
    R1        1.59547   0.43202   0.16739   0.00000   0.16739   1.76286
    R2        3.05974   0.17131   0.07235   0.00000   0.07235   3.13209
    R3        2.59734   0.22648   0.12401   0.00000   0.12401   2.72135
    R4        1.59650   0.43672   0.16944   0.00000   0.16944   1.76594
    R5        1.59404   0.41825   0.16451   0.00000   0.16451   1.75855
    R6        2.60467   0.26361   0.13867   0.00000   0.13867   2.74333
    R7        1.59484   0.42825   0.16613   0.00000   0.16613   1.76097
    R8        3.06624   0.19060   0.08535   0.00000   0.08535   3.15158
    R9        2.60467   0.26361   0.13867   0.00000   0.13867   2.74333
   R10        1.59650   0.43672   0.16944   0.00000   0.16944   1.76594
   R11        1.59404   0.41825   0.16451   0.00000   0.16451   1.75855
   R12        2.59734   0.22648   0.12401   0.00000   0.12401   2.72135
   R13        1.59547   0.43202   0.16739   0.00000   0.16739   1.76286
   R14        3.05974   0.17131   0.07235   0.00000   0.07235   3.13209
    A1        1.57496   0.01558   0.00832   0.00000   0.00057   1.57553
    A2        1.60455   0.12513   0.06751   0.00000   0.06293   1.66748
    A3        2.08954   0.10116   0.11019   0.00000   0.10924   2.19878
    A4        1.57540   0.01828   0.00920   0.00000   0.00735   1.58274
    A5        2.01029  -0.03463  -0.04832   0.00000  -0.04844   1.96184
    A6        2.26332   0.07067   0.09804   0.00000   0.09783   2.36115
    A7        1.57161   0.00478   0.00162   0.00000   0.00260   1.57421
    A8        1.57702   0.01892   0.01246   0.00000   0.01091   1.58793
    A9        2.00949  -0.03667  -0.04990   0.00000  -0.05002   1.95948
   A10        1.57505   0.01672   0.00851   0.00000   0.00964   1.58470
   A11        2.05868   0.05434   0.04847   0.00000   0.04832   2.10699
   A12        2.16576  -0.10920  -0.09707   0.00000  -0.09717   2.06860
   A13        1.57264   0.00902   0.00369   0.00000   0.00273   1.57537
   A14        1.57505   0.01672   0.00851   0.00000   0.00964   1.58470
   A15        2.05868   0.05434   0.04847   0.00000   0.04832   2.10699
   A16        1.57702   0.01892   0.01246   0.00000   0.01091   1.58793
   A17        2.00949  -0.03667  -0.04990   0.00000  -0.05002   1.95948
   A18        2.26332   0.07067   0.09804   0.00000   0.09783   2.36115
   A19        1.57161   0.00478   0.00162   0.00000   0.00260   1.57421
   A20        1.57540   0.01828   0.00920   0.00000   0.00735   1.58274
   A21        2.01029  -0.03463  -0.04832   0.00000  -0.04844   1.96184
   A22        1.60455   0.12513   0.06751   0.00000   0.06293   1.66748
   A23        2.08954   0.10116   0.11019   0.00000   0.10924   2.19878
   A24        1.57496   0.01558   0.00832   0.00000   0.00057   1.57553
    D1        3.12782  -0.05463  -0.02755   0.00000  -0.03004   3.09778
    D2        1.55396  -0.06829  -0.03367   0.00000  -0.03560   1.51836
    D3       -1.57266  -0.01386  -0.00373   0.00000  -0.00552  -1.57818
    D4       -1.56050   0.03970   0.02060   0.00000   0.02225  -1.53825
    D5       -3.13435   0.02603   0.01448   0.00000   0.01669  -3.11766
    D6        0.02221   0.08047   0.04442   0.00000   0.04678   0.06899
    D7        1.56110  -0.03563  -0.01940   0.00000  -0.01932   1.54178
    D8       -0.01405  -0.05507  -0.02809   0.00000  -0.02856  -0.04260
    D9        3.13991  -0.00518  -0.00336   0.00000  -0.00396   3.13596
   D10       -3.14015   0.00492   0.00289   0.00000   0.00384  -3.13631
   D11        1.56790  -0.01453  -0.00580   0.00000  -0.00540   1.56249
   D12       -1.56133   0.03536   0.01893   0.00000   0.01920  -1.54213
   D13       -1.56553   0.01878   0.01053   0.00000   0.01073  -1.55481
   D14       -3.14068  -0.00067   0.00183   0.00000   0.00149  -3.13919
   D15        0.01328   0.04922   0.02657   0.00000   0.02609   0.03937
   D16        1.56133  -0.03536  -0.01893   0.00000  -0.01920   1.54213
   D17       -0.01328  -0.04922  -0.02657   0.00000  -0.02609  -0.03937
   D18       -3.13991   0.00518   0.00336   0.00000   0.00396  -3.13596
   D19        3.14015  -0.00492  -0.00289   0.00000  -0.00384   3.13631
   D20        1.56553  -0.01878  -0.01053   0.00000  -0.01073   1.55481
   D21       -1.56110   0.03563   0.01940   0.00000   0.01932  -1.54178
   D22       -1.56790   0.01453   0.00580   0.00000   0.00540  -1.56249
   D23        3.14068   0.00067  -0.00183   0.00000  -0.00149   3.13919
   D24        0.01405   0.05507   0.02809   0.00000   0.02856   0.04260
   D25        1.57266   0.01386   0.00373   0.00000   0.00552   1.57818
   D26       -0.02221  -0.08047  -0.04442   0.00000  -0.04678  -0.06899
   D27       -3.12782   0.05463   0.02755   0.00000   0.03004  -3.09778
   D28        1.56050  -0.03970  -0.02060   0.00000  -0.02225   1.53825
   D29       -1.55396   0.06829   0.03367   0.00000   0.03560  -1.51836
   D30        3.13435  -0.02603  -0.01448   0.00000  -0.01669   3.11766
         Item               Value     Threshold  Converged?
 Maximum Force            0.436721     0.000450     NO 
 RMS     Force            0.160978     0.000300     NO 
 Maximum Displacement     1.079373     0.001800     NO 
 RMS     Displacement     0.238116     0.001200     NO 
 Predicted change in Energy=-4.454552D-01
 GradGradGradGradGradGradGradGradGradGradGradGradGradGradGradGradGradGrad

                          Input orientation:                          
 ---------------------------------------------------------------------
 Center     Atomic      Atomic             Coordinates (Angstroms)
 Number     Number       Type             X           Y           Z
 ---------------------------------------------------------------------
      1          1           0       -0.331549    0.155402   -0.933170
      2          6           0       -0.245179    0.157919   -0.004315
      3         17           0       -0.867183   -1.376783    0.065560
      4          1           0        1.152173    0.528742    0.938636
      5          6           0        1.152251    0.505669    0.004423
      6          1           0        1.288963    1.425790   -0.021466
      7          1           0        2.400000   -0.253548   -0.933742
      8          6           0        2.400000   -0.236313   -0.002035
      9         17           0        2.400000   -1.903615    0.036441
     10          1           0        3.647827    0.528742    0.938636
     11          6           0        3.647749    0.505669    0.004423
     12          1           0        3.511037    1.425790   -0.021466
     13          1           0        5.131549    0.155402   -0.933170
     14          6           0        5.045179    0.157919   -0.004315
     15         17           0        5.667183   -1.376783    0.065560
 ---------------------------------------------------------------------
                    Distance matrix (angstroms):
                    1          2          3          4          5
     1  H    0.000000
     2  C    0.932865   0.000000
     3  Cl   1.905769   1.657432   0.000000
     4  H    2.417534   1.726053   2.910513   0.000000
     5  C    1.789813   1.440075   2.761427   0.934498   0.000000
     6  H    2.251922   1.990322   3.537083   1.321061   0.930582
     7  H    2.761992   2.833745   3.596491   2.382194   1.735927
     8  C    2.912355   2.674396   3.461174   1.739897   1.451708
     9  Cl   3.555427   3.353886   3.309514   2.878782   2.713403
    10  H    4.413442   4.022705   4.977811   2.495654   2.664805
    11  C    4.103241   3.908439   4.892032   2.664805   2.495499
    12  H    4.148561   3.964461   5.199116   2.700135   2.532028
    13  H    5.463098   5.456371   6.271351   4.413442   4.103241
    14  C    5.456371   5.290357   6.108700   4.022705   3.908439
    15  Cl   6.271351   6.108700   6.534366   4.977811   4.892032
                    6          7          8          9         10
     6  H    0.000000
     7  H    2.210617   0.000000
     8  C    1.999342   0.931866   0.000000
     9  Cl   3.510370   1.914152   1.667746   0.000000
    10  H    2.700135   2.382194   1.739897   2.878782   0.000000
    11  C    2.532028   1.735927   1.451708   2.713403   0.934498
    12  H    2.222074   2.210617   1.999342   3.510370   1.321061
    13  H    4.148561   2.761992   2.912355   3.555427   2.417534
    14  C    3.964461   2.833745   2.674396   3.353886   1.726053
    15  Cl   5.199116   3.596491   3.461174   3.309514   2.910513
                   11         12         13         14         15
    11  C    0.000000
    12  H    0.930582   0.000000
    13  H    1.789813   2.251922   0.000000
    14  C    1.440075   1.990322   0.932865   0.000000
    15  Cl   2.761427   3.537083   1.905769   1.657432   0.000000
 Stoichiometry    C5H7Cl3
 Framework group  CS[SG(CHCl),X(C4H6Cl2)]
 Deg. of freedom    21
 Full point group                 CS      NOp   2
 Largest Abelian subgroup         CS      NOp   2
 Largest concise Abelian subgroup CS      NOp   2
                         Standard orientation:                         
 ---------------------------------------------------------------------
 Center     Atomic      Atomic             Coordinates (Angstroms)
 Number     Number       Type             X           Y           Z
 ---------------------------------------------------------------------
      1          1           0       -0.910898    0.978079    2.731549
      2          6           0        0.017110    0.938346    2.645179
      3         17           0        0.017110   -0.597946    3.267183
      4          1           0        0.975951    1.265897    1.247827
      5          6           0        0.041656    1.285339    1.247749
      6          1           0        0.057644    2.205685    1.111037
      7          1           0       -0.930070    0.569578   -0.000000
      8          6           0        0.001457    0.544418   -0.000000
      9         17           0       -0.035940   -1.122909    0.000000
     10          1           0        0.975951    1.265897   -1.247827
     11          6           0        0.041656    1.285339   -1.247749
     12          1           0        0.057644    2.205685   -1.111037
     13          1           0       -0.910898    0.978079   -2.731549
     14          6           0        0.017110    0.938346   -2.645179
     15         17           0        0.017110   -0.597946   -3.267183
 ---------------------------------------------------------------------
 Rotational constants (GHZ):           3.3134552           0.5172584           0.4510281
 Standard basis: STO-3G (5D, 7F)
 There are    34 symmetry adapted cartesian basis functions of A'  symmetry.
 There are    25 symmetry adapted cartesian basis functions of A"  symmetry.
 There are    34 symmetry adapted basis functions of A'  symmetry.
 There are    25 symmetry adapted basis functions of A"  symmetry.
    59 basis functions,   177 primitive gaussians,    59 cartesian basis functions
    44 alpha electrons       44 beta electrons
       nuclear repulsion energy       604.4255570106 Hartrees.



 Warning!  Cl atom    3 may be hypervalent but has no d functions.
 Warning!  Cl atom   15 may be hypervalent but has no d functions.



 NAtoms=   15 NActive=   15 NUniq=    9 SFac= 2.78D+00 NAtFMM=   60 NAOKFM=F Big=F
 Integral buffers will be    131072 words long.
 Raffenetti 1 integral format.
 Two-electron integral symmetry is turned on.
 One-electron integrals computed using PRISM.
 NBasis=    59 RedAO= T EigKep=  1.37D-01  NBF=    34    25
 NBsUse=    59 1.00D-06 EigRej= -1.00D+00 NBFU=    34    25
 Initial guess from the checkpoint file:  "/scratch/bell/jaguiarc/gaussian/Gau-110651.chk"
 B after Tr=    -0.000000    0.000000    0.000000
         Rot=    0.999956   -0.000000    0.000000    0.009416 Ang=   1.08 deg.
 Initial guess orbital symmetries:
       Occupied  (A") (A') (A') (A') (A") (A') (A') (A") (A') (A")
                 (A') (A') (A") (A") (A') (A') (A") (A') (A") (A')
                 (A') (A") (A') (A') (A") (A') (A') (A") (A') (A")
                 (A") (A') (A") (A') (A') (A") (A') (A") (A') (A")
                 (A') (A") (A') (A')
       Virtual   (A") (A') (A') (A") (A') (A") (A') (A") (A') (A")
                 (A') (A") (A') (A') (A")
 ExpMin= 1.69D-01 ExpMax= 6.01D+02 ExpMxC= 6.01D+02 IAcc=3 IRadAn=         5 AccDes= 0.00D+00
 Harris functional with IExCor=  205 and IRadAn=       5 diagonalized for initial guess.
 HarFok:  IExCor=  205 AccDes= 0.00D+00 IRadAn=         5 IDoV= 1 UseB2=F ITyADJ=14
 ICtDFT=  3500011 ScaDFX=  1.000000  1.000000  1.000000  1.000000
 FoFCou: FMM=F IPFlag=           0 FMFlag=      100000 FMFlg1=           0
         NFxFlg=           0 DoJE=T BraDBF=F KetDBF=T FulRan=T
         wScrn=  0.000000 ICntrl=       500 IOpCl=  0 I1Cent=   200000004 NGrid=           0
         NMat0=    1 NMatS0=      1 NMatT0=    0 NMatD0=    1 NMtDS0=    0 NMtDT0=    0
 Petite list used in FoFCou.
 Requested convergence on RMS density matrix=1.00D-08 within 128 cycles.
 Requested convergence on MAX density matrix=1.00D-06.
 Requested convergence on             energy=1.00D-06.
 No special actions if energy rises.
 Integral accuracy reduced to 1.0D-05 until final iterations.
 Initial convergence to 1.0D-05 achieved.  Increase integral accuracy.
 SCF Done:  E(RHF) =  -1553.87770334     A.U. after   15 cycles
            NFock= 15  Conv=0.38D-08     -V/T= 2.0146
 Calling FoFJK, ICntrl=      2127 FMM=F ISym2X=1 I1Cent= 0 IOpClX= 0 NMat=1 NMatS=1 NMatT=0.
 ***** Axes restored to original set *****
 -------------------------------------------------------------------
 Center     Atomic                   Forces (Hartrees/Bohr)
 Number     Number              X              Y              Z
 -------------------------------------------------------------------
      1        1          -0.079433467    0.066638342   -0.216716438
      2        6           0.028357865    0.015715645    0.022604499
      3       17          -0.040755845   -0.118525013    0.058893610
      4        1           0.005987375    0.023495956    0.228517776
      5        6          -0.043685087   -0.099853415    0.109939618
      6        1           0.030027093    0.204060555   -0.069497262
      7        1          -0.000000000   -0.015581239   -0.224055557
      8        6          -0.000000000   -0.035325874   -0.100482507
      9       17           0.000000000   -0.132157026    0.057054459
     10        1          -0.005987375    0.023495956    0.228517776
     11        6           0.043685087   -0.099853415    0.109939618
     12        1          -0.030027093    0.204060555   -0.069497262
     13        1           0.079433467    0.066638342   -0.216716438
     14        6          -0.028357865    0.015715645    0.022604499
     15       17           0.040755845   -0.118525013    0.058893610
 -------------------------------------------------------------------
 Cartesian Forces:  Max     0.228517776 RMS     0.104106132

 GradGradGradGradGradGradGradGradGradGradGradGradGradGradGradGradGradGrad
 Berny optimization.
 Using GEDIIS/GDIIS optimizer.
 FormGI is forming the generalized inverse of G from B-inverse, IUseBI=4.
 Internal  Forces:  Max     0.229027732 RMS     0.086157882
 Search for a local minimum.
 Step number   3 out of a maximum of   78
 All quantities printed in internal units (Hartrees-Bohrs-Radians)
 Mixed Optimization -- RFO/linear search
 Update second derivatives using D2CorX and points    2    3
 ITU=  0  1  0
 Use linear search instead of GDIIS.
 Linear search step of   1.196 exceeds DXMaxT=   0.505 scaled by   0.844
 Quartic linear search produced a step of  1.68745.
 Iteration  1 RMS(Cart)=  0.29817826 RMS(Int)=  0.05160840
 Iteration  2 RMS(Cart)=  0.11810887 RMS(Int)=  0.00731270
 Iteration  3 RMS(Cart)=  0.00751895 RMS(Int)=  0.00545117
 Iteration  4 RMS(Cart)=  0.00003602 RMS(Int)=  0.00545113
 Iteration  5 RMS(Cart)=  0.00000106 RMS(Int)=  0.00545113
 Iteration  6 RMS(Cart)=  0.00000001 RMS(Int)=  0.00545113
 ClnCor:  largest displacement from symmetrization is 2.79D-09 for atom    15.
 Variable       Old X    -DE/DX   Delta X   Delta X   Delta X     New X
                                 (Linear)    (Quad)   (Total)
    R1        1.76286   0.22296   0.28246   0.00000   0.28246   2.04532
    R2        3.13209   0.12753   0.12209   0.00000   0.12209   3.25419
    R3        2.72135   0.09867   0.20926   0.00000   0.20926   2.93061
    R4        1.76594   0.22903   0.28593   0.00000   0.28593   2.05187
    R5        1.75855   0.20811   0.27760   0.00000   0.27760   2.03615
    R6        2.74333   0.13290   0.23399   0.00000   0.23399   2.97732
    R7        1.76097   0.22431   0.28033   0.00000   0.28033   2.04130
    R8        3.15158   0.13344   0.14402   0.00000   0.14402   3.29560
    R9        2.74333   0.13290   0.23399   0.00000   0.23399   2.97732
   R10        1.76594   0.22903   0.28593   0.00000   0.28593   2.05187
   R11        1.75855   0.20811   0.27760   0.00000   0.27760   2.03615
   R12        2.72135   0.09867   0.20926   0.00000   0.20926   2.93061
   R13        1.76286   0.22296   0.28246   0.00000   0.28246   2.04532
   R14        3.13209   0.12753   0.12209   0.00000   0.12209   3.25419
    A1        1.57553   0.01907   0.00097   0.00000  -0.02093   1.55460
    A2        1.66748   0.08349   0.10620   0.00000   0.09017   1.75765
    A3        2.19878  -0.02518   0.18433   0.00000   0.17882   2.37760
    A4        1.58274   0.01567   0.01240   0.00000   0.00670   1.58944
    A5        1.96184   0.01482  -0.08174   0.00000  -0.08189   1.87996
    A6        2.36115  -0.03144   0.16508   0.00000   0.16443   2.52558
    A7        1.57421   0.00691   0.00439   0.00000   0.00686   1.58107
    A8        1.58793   0.01177   0.01841   0.00000   0.01343   1.60137
    A9        1.95948   0.01516  -0.08440   0.00000  -0.08450   1.87498
   A10        1.58470   0.01632   0.01627   0.00000   0.01946   1.60416
   A11        2.10699   0.00967   0.08153   0.00000   0.08095   2.18795
   A12        2.06860  -0.02090  -0.16396   0.00000  -0.16418   1.90442
   A13        1.57537   0.00923   0.00461   0.00000   0.00140   1.57677
   A14        1.58470   0.01632   0.01627   0.00000   0.01946   1.60416
   A15        2.10699   0.00967   0.08153   0.00000   0.08095   2.18795
   A16        1.58793   0.01177   0.01841   0.00000   0.01343   1.60137
   A17        1.95948   0.01516  -0.08440   0.00000  -0.08450   1.87498
   A18        2.36115  -0.03144   0.16508   0.00000   0.16443   2.52558
   A19        1.57421   0.00691   0.00439   0.00000   0.00686   1.58107
   A20        1.58274   0.01567   0.01240   0.00000   0.00670   1.58944
   A21        1.96184   0.01482  -0.08174   0.00000  -0.08189   1.87996
   A22        1.66748   0.08349   0.10620   0.00000   0.09017   1.75765
   A23        2.19878  -0.02518   0.18433   0.00000   0.17882   2.37760
   A24        1.57553   0.01907   0.00097   0.00000  -0.02093   1.55460
    D1        3.09778  -0.04704  -0.05070   0.00000  -0.05651   3.04127
    D2        1.51836  -0.06121  -0.06007   0.00000  -0.06464   1.45373
    D3       -1.57818  -0.01599  -0.00931   0.00000  -0.01360  -1.59178
    D4       -1.53825   0.03427   0.03755   0.00000   0.04151  -1.49673
    D5       -3.11766   0.02010   0.02817   0.00000   0.03338  -3.08427
    D6        0.06899   0.06532   0.07893   0.00000   0.08442   0.15340
    D7        1.54178  -0.02838  -0.03260   0.00000  -0.03199   1.50979
    D8       -0.04260  -0.04903  -0.04819   0.00000  -0.04942  -0.09203
    D9        3.13596  -0.00148  -0.00668   0.00000  -0.00846   3.12749
   D10       -3.13631   0.00419   0.00648   0.00000   0.00927  -3.12704
   D11        1.56249  -0.01646  -0.00911   0.00000  -0.00817   1.55433
   D12       -1.54213   0.03108   0.03239   0.00000   0.03279  -1.50934
   D13       -1.55481   0.01681   0.01810   0.00000   0.01894  -1.53587
   D14       -3.13919  -0.00385   0.00251   0.00000   0.00151  -3.13768
   D15        0.03937   0.04370   0.04402   0.00000   0.04246   0.08183
   D16        1.54213  -0.03108  -0.03239   0.00000  -0.03279   1.50934
   D17       -0.03937  -0.04370  -0.04402   0.00000  -0.04246  -0.08183
   D18       -3.13596   0.00148   0.00668   0.00000   0.00846  -3.12749
   D19        3.13631  -0.00419  -0.00648   0.00000  -0.00927   3.12704
   D20        1.55481  -0.01681  -0.01810   0.00000  -0.01894   1.53587
   D21       -1.54178   0.02838   0.03260   0.00000   0.03199  -1.50979
   D22       -1.56249   0.01646   0.00911   0.00000   0.00817  -1.55433
   D23        3.13919   0.00385  -0.00251   0.00000  -0.00151   3.13768
   D24        0.04260   0.04903   0.04819   0.00000   0.04942   0.09203
   D25        1.57818   0.01599   0.00931   0.00000   0.01360   1.59178
   D26       -0.06899  -0.06532  -0.07893   0.00000  -0.08442  -0.15340
   D27       -3.09778   0.04704   0.05070   0.00000   0.05651  -3.04127
   D28        1.53825  -0.03427  -0.03755   0.00000  -0.04151   1.49673
   D29       -1.51836   0.06121   0.06007   0.00000   0.06464  -1.45373
   D30        3.11766  -0.02010  -0.02817   0.00000  -0.03338   3.08427
         Item               Value     Threshold  Converged?
 Maximum Force            0.229028     0.000450     NO 
 RMS     Force            0.086158     0.000300     NO 
 Maximum Displacement     1.540178     0.001800     NO 
 RMS     Displacement     0.399366     0.001200     NO 
 Predicted change in Energy=-5.870752D-02
 GradGradGradGradGradGradGradGradGradGradGradGradGradGradGradGradGradGrad

                          Input orientation:                          
 ---------------------------------------------------------------------
 Center     Atomic      Atomic             Coordinates (Angstroms)
 Number     Number       Type             X           Y           Z
 ---------------------------------------------------------------------
      1          1           0       -0.626646    0.385716   -1.068980
      2          6           0       -0.434336    0.337512   -0.004958
      3         17           0       -1.682210   -0.840435    0.138841
      4          1           0        1.128029    0.393451    1.091697
      5          6           0        1.116416    0.333287    0.007624
      6          1           0        1.447627    1.356112   -0.063778
      7          1           0        2.400000   -0.629074   -1.082772
      8          6           0        2.400000   -0.580268   -0.003664
      9         17           0        2.400000   -2.321943    0.085543
     10          1           0        3.671971    0.393451    1.091697
     11          6           0        3.683584    0.333287    0.007624
     12          1           0        3.352373    1.356112   -0.063778
     13          1           0        5.426646    0.385716   -1.068980
     14          6           0        5.234336    0.337512   -0.004958
     15         17           0        6.482210   -0.840435    0.138841
 ---------------------------------------------------------------------
                    Distance matrix (angstroms):
                    1          2          3          4          5
     1  H    0.000000
     2  C    1.082334   0.000000
     3  Cl   2.019033   1.722042   0.000000
     4  H    2.783427   1.909651   3.213698   0.000000
     5  C    2.049412   1.550810   3.037623   1.085803   0.000000
     6  H    2.500941   2.140746   3.829068   1.537524   1.077483
     7  H    3.192268   3.182677   4.266316   2.718783   1.939765
     8  C    3.350912   2.979226   4.092974   1.940580   1.575531
     9  Cl   4.221958   3.887719   4.343058   3.162850   2.950239
    10  H    4.811100   4.250593   5.576528   2.543941   2.776633
    11  C    4.442961   4.117941   5.494232   2.776633   2.567167
    12  H    4.217189   3.921756   5.496626   2.685058   2.459831
    13  H    6.053292   5.956977   7.314241   4.811100   4.442961
    14  C    5.956977   5.668673   7.017611   4.250593   4.117941
    15  Cl   7.314241   7.017611   8.164421   5.576528   5.494232
                    6          7          8          9         10
     6  H    0.000000
     7  H    2.426175   0.000000
     8  C    2.158748   1.080211   0.000000
     9  Cl   3.802289   2.056882   1.743958   0.000000
    10  H    2.685058   2.718783   1.940580   3.162850   0.000000
    11  C    2.459831   1.939765   1.575531   2.950239   1.085803
    12  H    1.904745   2.426175   2.158748   3.802289   1.537524
    13  H    4.217189   3.192268   3.350912   4.221958   2.783427
    14  C    3.921756   3.182677   2.979226   3.887719   1.909651
    15  Cl   5.496626   4.266316   4.092974   4.343058   3.213698
                   11         12         13         14         15
    11  C    0.000000
    12  H    1.077483   0.000000
    13  H    2.049412   2.500941   0.000000
    14  C    1.550810   2.140746   1.082334   0.000000
    15  Cl   3.037623   3.829068   2.019033   1.722042   0.000000
 Stoichiometry    C5H7Cl3
 Framework group  CS[SG(CHCl),X(C4H6Cl2)]
 Deg. of freedom    21
 Full point group                 CS      NOp   2
 Largest Abelian subgroup         CS      NOp   2
 Largest concise Abelian subgroup CS      NOp   2
                         Standard orientation:                         
 ---------------------------------------------------------------------
 Center     Atomic      Atomic             Coordinates (Angstroms)
 Number     Number       Type             X           Y           Z
 ---------------------------------------------------------------------
      1          1           0        0.651830    1.406684    3.026646
      2          6           0        0.944831    0.382665    2.834336
      3         17           0       -0.126070   -0.128617    4.082210
      4          1           0        1.346946   -0.639140    1.271971
      5          6           0        0.944831    0.369392    1.283584
      6          1           0        1.891723    0.762664    0.952373
      7          1           0       -0.314566    1.096732   -0.000000
      8          6           0        0.075202    0.089291    0.000000
      9         17           0       -1.547482   -0.549682   -0.000000
     10          1           0        1.346946   -0.639140   -1.271971
     11          6           0        0.944831    0.369392   -1.283584
     12          1           0        1.891723    0.762664   -0.952373
     13          1           0        0.651830    1.406684   -3.026646
     14          6           0        0.944831    0.382665   -2.834336
     15         17           0       -0.126070   -0.128617   -4.082210
 ---------------------------------------------------------------------
 Rotational constants (GHZ):           3.0671285           0.3539409           0.3199302
 Standard basis: STO-3G (5D, 7F)
 There are    34 symmetry adapted cartesian basis functions of A'  symmetry.
 There are    25 symmetry adapted cartesian basis functions of A"  symmetry.
 There are    34 symmetry adapted basis functions of A'  symmetry.
 There are    25 symmetry adapted basis functions of A"  symmetry.
    59 basis functions,   177 primitive gaussians,    59 cartesian basis functions
    44 alpha electrons       44 beta electrons
       nuclear repulsion energy       534.9942711969 Hartrees.
 NAtoms=   15 NActive=   15 NUniq=    9 SFac= 2.78D+00 NAtFMM=   60 NAOKFM=F Big=F
 Integral buffers will be    131072 words long.
 Raffenetti 1 integral format.
 Two-electron integral symmetry is turned on.
 One-electron integrals computed using PRISM.
 NBasis=    59 RedAO= T EigKep=  2.13D-01  NBF=    34    25
 NBsUse=    59 1.00D-06 EigRej= -1.00D+00 NBFU=    34    25
 Initial guess from the checkpoint file:  "/scratch/bell/jaguiarc/gaussian/Gau-110651.chk"
 B after Tr=    -0.000000   -0.000000    0.000000
         Rot=    0.834952   -0.000000    0.000000    0.550322 Ang=  66.78 deg.
 Initial guess orbital symmetries:
       Occupied  (A") (A') (A') (A') (A') (A") (A") (A') (A") (A')
                 (A') (A") (A') (A") (A') (A") (A') (A') (A") (A')
                 (A') (A") (A') (A') (A") (A') (A') (A") (A') (A")
                 (A') (A") (A") (A') (A') (A") (A') (A') (A") (A")
                 (A') (A") (A') (A')
       Virtual   (A") (A') (A") (A') (A') (A") (A') (A") (A') (A')
                 (A") (A") (A') (A') (A")
 ExpMin= 1.69D-01 ExpMax= 6.01D+02 ExpMxC= 6.01D+02 IAcc=3 IRadAn=         5 AccDes= 0.00D+00
 Harris functional with IExCor=  205 and IRadAn=       5 diagonalized for initial guess.
 HarFok:  IExCor=  205 AccDes= 0.00D+00 IRadAn=         5 IDoV= 1 UseB2=F ITyADJ=14
 ICtDFT=  3500011 ScaDFX=  1.000000  1.000000  1.000000  1.000000
 FoFCou: FMM=F IPFlag=           0 FMFlag=      100000 FMFlg1=           0
         NFxFlg=           0 DoJE=T BraDBF=F KetDBF=T FulRan=T
         wScrn=  0.000000 ICntrl=       500 IOpCl=  0 I1Cent=   200000004 NGrid=           0
         NMat0=    1 NMatS0=      1 NMatT0=    0 NMatD0=    1 NMtDS0=    0 NMtDT0=    0
 Petite list used in FoFCou.
 Requested convergence on RMS density matrix=1.00D-08 within 128 cycles.
 Requested convergence on MAX density matrix=1.00D-06.
 Requested convergence on             energy=1.00D-06.
 No special actions if energy rises.
 Integral accuracy reduced to 1.0D-05 until final iterations.
 Initial convergence to 1.0D-05 achieved.  Increase integral accuracy.
 SCF Done:  E(RHF) =  -1554.18460878     A.U. after   17 cycles
            NFock= 17  Conv=0.66D-08     -V/T= 2.0160
 Calling FoFJK, ICntrl=      2127 FMM=F ISym2X=1 I1Cent= 0 IOpClX= 0 NMat=1 NMatS=1 NMatT=0.
 ***** Axes restored to original set *****
 -------------------------------------------------------------------
 Center     Atomic                   Forces (Hartrees/Bohr)
 Number     Number              X              Y              Z
 -------------------------------------------------------------------
      1        1          -0.005891346    0.055420866   -0.018993633
      2        6           0.048574895   -0.004342301   -0.128642572
      3       17          -0.031841252   -0.058124813    0.052673112
      4        1           0.006435697    0.005839318    0.029045071
      5        6          -0.029844820    0.023470546    0.208079571
      6        1          -0.003282540    0.005597055   -0.044909669
      7        1          -0.000000000   -0.004608191   -0.027946945
      8        6           0.000000000    0.001071816   -0.215718183
      9       17          -0.000000000   -0.052184968    0.049161368
     10        1          -0.006435697    0.005839318    0.029045071
     11        6           0.029844820    0.023470546    0.208079571
     12        1           0.003282540    0.005597055   -0.044909669
     13        1           0.005891346    0.055420866   -0.018993633
     14        6          -0.048574895   -0.004342301   -0.128642572
     15       17           0.031841252   -0.058124813    0.052673112
 -------------------------------------------------------------------
 Cartesian Forces:  Max     0.215718183 RMS     0.067828795

 GradGradGradGradGradGradGradGradGradGradGradGradGradGradGradGradGradGrad
 Berny optimization.
 Using GEDIIS/GDIIS optimizer.
 FormGI is forming the generalized inverse of G from B-inverse, IUseBI=4.
 Internal  Forces:  Max     0.072809490 RMS     0.029934086
 Search for a local minimum.
 Step number   4 out of a maximum of   78
 All quantities printed in internal units (Hartrees-Bohrs-Radians)
 Mixed Optimization -- RFO/linear search
 Update second derivatives using D2CorX and points    3    4
 ITU=  0  0  1  0
 Use linear search instead of GDIIS.
     Eigenvalues ---    0.02860   0.02861   0.02861   0.02861   0.03500
     Eigenvalues ---    0.03535   0.03942   0.04961   0.05125   0.06824
     Eigenvalues ---    0.06825   0.07977   0.09392   0.14179   0.14179
     Eigenvalues ---    0.15979   0.15985   0.16000   0.16121   0.21510
     Eigenvalues ---    0.21998   0.24668   0.24790   0.24889   0.25430
     Eigenvalues ---    0.51166   0.51218   0.51872   0.54709   0.56839
     Eigenvalues ---    0.56839   0.57425   0.77430   1.11153   1.11153
     Eigenvalues ---    1.11153   1.11153   1.11153   1.11178
 RFO step:  Lambda=-1.71130722D-01 EMin= 2.86044582D-02
 Quartic linear search produced a step of  0.14682.
 Iteration  1 RMS(Cart)=  0.19626665 RMS(Int)=  0.02385335
 Iteration  2 RMS(Cart)=  0.02724776 RMS(Int)=  0.00345611
 Iteration  3 RMS(Cart)=  0.00108986 RMS(Int)=  0.00343357
 Iteration  4 RMS(Cart)=  0.00000341 RMS(Int)=  0.00343357
 Iteration  5 RMS(Cart)=  0.00000004 RMS(Int)=  0.00343357
 ClnCor:  largest displacement from symmetrization is 5.25D-11 for atom    15.
 Variable       Old X    -DE/DX   Delta X   Delta X   Delta X     New X
                                 (Linear)    (Quad)   (Total)
    R1        2.04532   0.02219   0.04147  -0.01463   0.02684   2.07216
    R2        3.25419   0.06723   0.01793   0.08493   0.10285   3.35704
    R3        2.93061  -0.01009   0.03072  -0.03721  -0.00648   2.92412
    R4        2.05187   0.02939   0.04198  -0.00899   0.03299   2.08486
    R5        2.03615   0.00728   0.04076  -0.02612   0.01464   2.05079
    R6        2.97732   0.02976   0.03435   0.01762   0.05198   3.02930
    R7        2.04130   0.02813   0.04116  -0.00940   0.03176   2.07306
    R8        3.29560   0.05463   0.02114   0.06238   0.08353   3.37913
    R9        2.97732   0.02976   0.03435   0.01762   0.05198   3.02930
   R10        2.05187   0.02939   0.04198  -0.00899   0.03299   2.08486
   R11        2.03615   0.00728   0.04076  -0.02612   0.01464   2.05079
   R12        2.93061  -0.01009   0.03072  -0.03721  -0.00648   2.92412
   R13        2.04532   0.02219   0.04147  -0.01463   0.02684   2.07216
   R14        3.25419   0.06723   0.01793   0.08493   0.10285   3.35704
    A1        1.55460   0.03390  -0.00307   0.14132   0.14911   1.70371
    A2        1.75765   0.02913   0.01324   0.09334   0.11407   1.87172
    A3        2.37760  -0.07281   0.02625  -0.17756  -0.14606   2.23154
[...]
 (esu units = statvolt**-1 cm**4 , SI units = C**3 m**3 J**-2)
 Beta(0;0,0):
               (au)            (10**-30 esu)      (10**-50 SI)
   || (z)     0.246608D+03      0.213050D+01      0.790715D+00
   _|_(z)     0.822027D+02      0.710167D+00      0.263572D+00
   x          0.000000D+00      0.000000D+00      0.000000D+00
   y          0.293225D+03      0.253324D+01      0.940186D+00
   z          0.123304D+04      0.106525D+02      0.395357D+01
   ||         0.253485D+03      0.218992D+01      0.812766D+00
   xxx        0.000000D+00      0.000000D+00      0.000000D+00
   xxy        0.963654D+02      0.832522D+00      0.308982D+00
   yxy        0.000000D+00      0.000000D+00      0.000000D+00
   yyy        0.265475D+00      0.229350D-02      0.851210D-03
   xxz        0.329025D+03      0.284252D+01      0.105497D+01
   yxz        0.000000D+00      0.000000D+00      0.000000D+00
   yyz        0.404498D+01      0.349455D-01      0.129697D-01
   zxz        0.000000D+00      0.000000D+00      0.000000D+00
   zyz        0.111083D+01      0.959669D-02      0.356172D-02
   zzz        0.779433D+02      0.673370D+00      0.249914D+00

 ----------------------------------------------------------------------
 1\1\GINC-BELL-A350\Freq\RHF\STO-3G\C5H7Cl3\JAGUIARC\07-Nov-2024\0\\#N 
 Geom=AllCheck Guess=TCheck SCRF=Check GenChk RHF/STO-3G Freq\\polimero
 \\0,1\H,-0.2423199422,0.199537127,-1.451751026\C,-0.0575302333,-0.0048
 940226,-0.4047047066\Cl,-0.988004504,-1.3484673018,0.2413660061\H,0.99
 81715877,0.4497582985,1.3888300778\C,1.0566743999,0.5523295705,0.30685
 20959\H,1.2525435467,1.5900226308,0.0298767135\H,2.4,-0.2904008534,-1.
 2713026201\C,2.4,-0.2370154298,-0.1769790357\Cl,2.4,-1.9491563051,0.42
 73433239\H,3.8018284123,0.4497582985,1.3888300778\C,3.7433256001,0.552
 3295705,0.3068520959\H,3.5474564533,1.5900226308,0.0298767135\H,5.0423
 199422,0.199537127,-1.451751026\C,4.8575302333,-0.0048940226,-0.404704
 7066\Cl,5.788004504,-1.3484673018,0.2413660061\\Version=ES64L-G16RevB.
 01\State=1-A'\HF=-1554.5550526\RMSD=1.038e-09\RMSF=4.380e-05\ZeroPoint
 =0.1235479\Thermal=0.1329529\Dipole=0.,1.7895167,-0.7456905\DipoleDeri
 v=0.295723,-0.1327277,0.0156242,-0.415701,0.0284731,0.0014522,0.710500
 4,-0.0010935,0.0705449,0.2772114,0.4517214,-0.0075715,2.4439359,0.3374
 242,-0.2316143,-1.1012706,-0.2395436,0.1620426,-0.9219609,-0.22334,0.0
 316705,-1.4063238,-0.4247107,0.1071442,0.5980958,0.1277678,-0.2616225,
 0.1967069,0.0075144,-0.0209551,0.0653975,0.0579892,-0.0103711,0.041518
 5,0.009807,0.0469473,-0.3669181,-0.1011062,0.079493,-0.8210624,-0.0432
 774,0.1789255,-0.686417,0.1928854,-0.0594279,0.1496257,-0.0119562,0.00
 70063,0.0645732,0.0107002,0.0167762,0.0956083,-0.03319,0.0655902,0.000
 9684,0.,0.,0.,-0.0864386,-0.014735,0.,-0.0284746,0.0077644,0.6572971,0
 .0000001,0.0000002,-0.0000001,0.7650614,-0.2090305,-0.0000001,-0.15491
 4,0.1974179,0.0809582,0.,0.,0.,-0.6118199,0.09914,0.,0.0701225,-0.2533
 313,0.1967069,-0.0075144,0.0209551,-0.0653975,0.0579892,-0.0103711,-0.
 0415185,0.009807,0.0469473,-0.3669181,0.1011062,-0.079493,0.8210624,-0
 .0432774,0.1789255,0.686417,0.1928854,-0.0594279,0.1496257,0.0119562,-
 0.0070063,-0.0645732,0.0107002,0.0167762,-0.0956083,-0.03319,0.0655902
 ,0.295723,0.1327277,-0.0156242,0.415701,0.0284731,0.0014522,-0.7105004
 ,-0.0010935,0.0705449,0.2772114,-0.4517214,0.0075715,-2.4439359,0.3374
 242,-0.2316143,1.1012706,-0.2395436,0.1620426,-0.9219609,0.22334,-0.03
 16705,1.4063238,-0.4247107,0.1071442,-0.5980958,0.1277678,-0.2616225\P
 olar=314.8619379,0.,43.8612825,0.,-9.0053832,28.6268465\PolarDeriv=-5.
 0137745,-3.1374385,-0.0665156,-2.5337952,-0.2389358,-0.7454947,-1.6077
 739,-1.6818241,0.73918,0.9465277,-1.5059039,0.5446682,-15.8749037,4.07
 96627,-0.4056805,-8.9717264,1.4002357,-5.4509884,-84.7574207,10.354893
 3,0.2212108,0.6931401,0.5715361,0.7667483,13.5553787,-14.5765909,4.292
 1715,-6.2992262,-1.4643964,-0.1353556,-14.6324991,-6.5585378,-0.498448
 6,-7.6189541,0.5957761,1.5217589,-27.7665892,-3.6815997,-1.024576,-0.4
 431082,0.0404038,-0.0839873,-17.9262135,-9.9120618,-6.2767726,1.439245
 ,1.5077829,-0.1729258,7.6595514,0.6079699,0.5976149,-10.2190445,-2.922
 3321,2.1706434,-4.1303855,1.1466633,0.0436457,-0.4307008,-0.0888563,-0
 .1519415,2.9780102,-1.1342992,0.9537794,-0.2085017,1.599892,-0.1126548
 ,2.8955706,-1.0061299,0.2133939,-4.5357402,1.0272825,5.3981188,80.1319
 763,-9.8277073,-0.2461547,1.4240417,-0.1496004,-1.001064,-24.0562842,9
 .2546601,-4.2297305,3.3488067,0.7491189,0.196975,1.4812222,3.4298735,0
 .605751,4.7109869,-0.51656,-2.8175688,-7.1807827,-0.1216818,0.0699825,
 0.4561519,0.1343875,0.081023,2.6330677,-5.6593032,7.1153016,0.1793969,
 -0.4418934,0.0362112,1.0452825,0.0907543,-0.4879078,-0.5286841,1.96647
 95,-0.4019598,-0.0000002,-0.7715162,0.0000001,1.8081929,0.,0.,1.223990
 7,0.,-0.5494631,0.,-1.7385849,-0.331949,5.1398805,-0.0000004,-0.075648
 1,-0.0000008,0.2426604,-5.4010088,-0.0000011,11.1212178,0.0000008,0.03
 30635,0.0000003,-0.0000001,44.7215597,0.0000006,8.7613865,-0.0000011,-
 2.0066507,0.1246289,28.7170731,-0.0000007,-1.5949886,-0.0000009,0.8882
 988,2.2243223,0.0000002,0.1840385,0.,-0.1727163,0.,0.0000001,2.9020801
 ,-0.0000008,-13.3997817,-0.0000006,2.8560355,-0.5065163,0.994599,0.000
 0003,1.6211915,0.0000004,-4.2327225,2.3366783,4.1303855,1.1466633,-0.0
 436457,-0.4307008,0.0888563,0.1519415,2.9780102,1.1342992,0.9537794,0.
 2085017,1.599892,-0.1126548,2.8955706,1.0061299,0.2133939,4.5357402,1.
 0272825,5.3981188,-80.1319763,-9.8277073,0.2461547,1.4240417,0.1496004
 ,1.001064,-24.0562842,-9.2546601,-4.2297305,-3.3488067,0.7491189,0.196
 975,1.4812222,-3.4298735,0.605751,-4.7109869,-0.51656,-2.8175688,7.180
 7827,-0.1216818,-0.0699825,0.4561519,-0.1343875,-0.081023,2.6330677,5.
 6593032,7.1153016,-0.1793969,-0.4418934,0.0362112,1.0452825,-0.0907543
 ,-0.4879078,0.5286841,1.9664795,-0.4019598,5.0137745,-3.1374385,0.0665
 156,-2.5337952,0.2389358,0.7454947,-1.6077739,1.6818241,0.73918,-0.946
 5277,-1.5059039,0.5446682,-15.8749037,-4.0796627,-0.4056805,8.9717264,
 1.4002357,-5.4509884,84.7574207,10.3548933,-0.2212108,0.6931401,-0.571
 5361,-0.7667483,13.5553787,14.5765909,4.2921715,6.2992262,-1.4643964,-
 0.1353556,-14.6324991,6.5585378,-0.4984486,7.6189541,0.5957761,1.52175
 89,27.7665892,-3.6815997,1.024576,-0.4431082,-0.0404038,0.0839873,-17.
 9262135,9.9120618,-6.2767726,-1.439245,1.5077829,-0.1729258,7.6595514,
 -0.6079699,0.5976149,10.2190445,-2.9223321,2.1706434\HyperPolar=0.,266
 .6459554,0.,61.8523544,-215.5082676,0.,-23.7300219,0.,13.2989023,-9.07
 64734\Quadrupole=-7.525124,2.6871853,4.8379387,0.,0.,-0.3659247\PG=CS 
 [SG(C1H1Cl1),X(C4H6Cl2)]\NImag=0\\0.05877781,0.01527168,0.05785227,0.0
 8258721,-0.08674482,0.45273270,-0.05251331,-0.01621881,-0.08997258,0.4
 3808012,-0.00874503,-0.05402043,0.08719906,0.27489329,0.35925133,-0.07
 274381,0.07807870,-0.45131498,0.19241837,-0.11511834,0.74354141,-0.000
 92126,-0.00318617,-0.00204210,-0.09933175,-0.11462532,0.04761602,0.119
 42720,-0.00978925,-0.01287395,-0.00424040,-0.12866808,-0.17540992,0.09
 108079,0.14340409,0.20741505,0.01970878,0.02512956,0.00038259,0.041952
 53,0.08167293,-0.08589095,-0.05720450,-0.09756527,0.07544272,-0.001568
 44,-0.00650376,-0.00282668,-0.00314145,0.00470732,-0.04209468,0.000695
 87,0.00312668,0.00108029,0.07429158,-0.00352731,0.00111930,0.00000399,
 0.00447391,0.00569583,-0.01467621,0.00149990,-0.00029781,-0.00050686,0
 .00259129,0.06993484,0.00008299,-0.00145380,-0.00012417,0.00052846,0.0
 0267838,-0.01093187,0.00126457,0.00193365,0.00128542,-0.02052887,-0.04
 027732,0.47242076,-0.00626628,0.00887816,0.01038422,-0.19210956,-0.099
 84407,-0.10692442,-0.01649750,-0.00861367,-0.00065473,-0.05857296,-0.0
 1563871,0.01872768,0.39294655,0.00760811,0.00480506,0.00213388,-0.1491
 1359,-0.14313056,-0.05577713,-0.02494789,-0.01708599,-0.00981384,-0.00
 804911,-0.07909551,0.04013317,0.18584565,0.75399566,-0.02933531,-0.017
 22613,-0.00294123,-0.14360775,-0.04648389,-0.21351827,0.01366637,0.010
 68008,0.00834165,0.02251592,0.04070384,-0.45781106,0.05622928,-0.05582
 965,0.87354077,-0.00042931,0.00281136,0.00044346,-0.01827512,-0.036325
 85,0.00714538,-0.00063831,-0.00543850,-0.00380066,-0.00085881,-0.00050
 346,-0.00090328,-0.05924951,-0.06835423,0.01881157,0.08812664,0.000356
 48,0.00187544,0.00023231,-0.00317664,-0.00689377,0.00486077,0.00155699
 ,0.00060965,-0.00131757,0.00137862,0.00465659,-0.00539095,-0.07117152,
 -0.40457200,0.09504997,0.06727672,0.42383811,0.00145233,-0.00017763,-0
 .00002943,-0.00357817,-0.01680450,0.01088758,-0.00247462,-0.00143655,-
 0.00020821,0.00680938,0.03810735,0.00003526,0.00859072,0.09296762,-0.1
 0538542,-0.01742912,-0.09778935,0.09163636,-0.00044962,0.00007612,-0.0
 0015937,0.00252222,0.00114600,0.00450710,-0.00027792,0.00006818,-0.000
 21500,-0.00478284,0.00345698,0.00028984,-0.00544512,0.00205983,0.03012
 836,0.00065480,-0.00101469,-0.00058044,0.07448097,0.00008532,0.0003403
 5,0.00014577,-0.00192023,0.00022400,0.00140835,0.00006617,0.00030306,0
 .00001859,0.00336725,-0.00160499,-0.00021367,-0.00322603,0.00208716,-0
 .01866924,-0.00061591,0.00096008,0.00036696,0.,0.07271962,0.00000069,0
 .00018267,0.00018728,0.00028542,0.00231130,0.00294408,-0.00039829,-0.0
 0044458,0.00020208,0.00060796,-0.00083502,0.00042308,-0.00969633,0.001
 27131,-0.00362447,0.00043166,-0.00028146,-0.00000402,0.,0.01943099,0.4
 6455383,0.00327184,-0.00103246,0.00040990,-0.06323635,-0.03616776,-0.0
 4002988,0.00292327,0.00303632,-0.00053765,-0.00989429,0.01019734,0.001
 89825,-0.01215015,0.05501198,0.05778616,-0.00836355,0.00573871,0.00753
 123,-0.06127971,0.,0.,0.27480141,-0.00115722,0.00023748,0.00233013,0.0
 2942444,0.02073775,0.00972675,-0.00335249,-0.00783875,0.00313185,0.001
 26396,-0.00148538,0.00126271,-0.01056118,-0.09087450,-0.01967263,0.034
 98770,-0.02138451,-0.01328543,0.,-0.06022481,-0.01938867,-0.00000001,0
 .48352691,-0.00124897,0.00168830,0.00208053,0.00864679,0.00609152,0.00
 323875,-0.00172086,-0.00224673,0.00098112,0.03603757,-0.02276406,-0.00
 662321,0.00909629,-0.01265112,-0.10756267,-0.00456802,0.00567427,0.002
 77916,0.,-0.02322158,-0.46391159,0.,-0.01135268,0.74902796,-0.00035453
 ,0.00025176,-0.00084929,-0.00102410,0.00096556,0.00202622,-0.00271437,
 0.00389139,-0.00178897,0.00090589,-0.00077211,-0.00115259,0.00091387,0
 .02042952,-0.00744008,-0.00372718,0.00144838,0.00086437,0.00235569,0.,
 0.,-0.03862326,0.,0.,0.04826839,0.00019371,0.00036779,-0.00058557,-0.0
 0068847,-0.00326493,0.00104561,-0.00047689,0.00204002,-0.00025982,-0.0
 0126432,0.00106496,0.00107038,-0.00613383,-0.02409114,0.00922883,0.004
 73840,-0.00122526,-0.00167159,0.,-0.01711412,-0.00445076,0.,-0.2220862
 6,0.08298989,0.,0.28941751,0.00008837,-0.00008825,0.00008970,-0.000157
 47,0.00287190,0.00043302,0.00024228,-0.00030125,0.00039120,-0.00062297
 ,-0.00023798,0.00062919,-0.00252393,-0.00369693,0.00334286,0.00102309,
 -0.00116592,0.00028097,0.,0.03767706,-0.00089829,0.,0.06375459,-0.0749
 0371,0.,-0.09619480,0.06546814,-0.00030759,0.00040025,-0.00036409,0.00
 249988,-0.00115398,0.00086344,0.00036383,0.00030738,-0.00025161,-0.000
 10490,0.00001568,0.00020362,0.00064402,0.00116669,0.00053954,-0.000169
 80,-0.00011808,-0.00001299,-0.00478284,-0.00336725,-0.00060796,-0.0098
 9428,-0.00126395,-0.03603757,0.00090589,0.00126432,0.00062297,0.074291
 58,0.00006993,-0.00006588,0.00013719,0.00152204,0.00022647,-0.00036419
 ,-0.00024467,-0.00039561,0.00019379,-0.00001568,0.00020998,0.00008317,
 0.00025370,-0.00011327,0.00038261,0.00019250,0.00015048,0.00004971,-0.
 00345697,-0.00160499,-0.00083502,-0.01019734,-0.00148539,-0.02276407,0
 .00077211,0.00106496,-0.00023798,-0.00259129,0.06993484,0.00015252,-0.
 00008903,0.00005905,0.00018860,0.00005957,-0.00012717,-0.00006188,-0.0
 0008717,0.00006725,-0.00020362,0.00008317,0.00001076,0.00010269,0.0003
 1655,0.00066935,0.00002874,-0.00002566,0.00001738,-0.00028984,-0.00021
 367,0.00042308,-0.00189825,0.00126272,-0.00662321,0.00115259,0.0010703
 8,0.00062919,0.02052887,-0.04027732,0.47242076,0.00033517,-0.00062433,
 0.00225554,-0.04278615,0.00705369,-0.00282268,-0.00120415,0.00180602,0
 .00054307,0.00064402,-0.00025370,-0.00010269,0.00095961,-0.02644390,-0
 .01635164,-0.00151782,-0.00200298,-0.00029281,-0.00544512,0.00322603,0
 .00969633,-0.01215017,0.01056118,-0.00909629,0.00091387,0.00613383,0.0
 0252393,-0.05857296,0.01563871,-0.01872768,0.39294655,-0.00085100,0.00
 075515,-0.00228631,-0.00752822,-0.00946538,0.00001221,0.00165932,0.005
 68595,-0.00163455,-0.00116669,-0.00011327,0.00031655,0.02644390,-0.001
 31012,0.00518768,0.00193295,0.00240949,-0.00033288,-0.00205983,0.00208
 716,0.00127132,-0.05501200,-0.09087450,-0.01265114,-0.02042951,-0.0240
 9115,-0.00369693,0.00804911,-0.07909551,0.04013317,-0.18584565,0.75399
 566,-0.00110118,0.00113114,-0.00219385,0.00298651,-0.00806985,0.001047
 76,0.00164986,0.00310908,-0.00146709,-0.00053954,0.00038261,0.00066935
 ,0.01635164,0.00518768,0.00751925,-0.00059278,0.00047818,0.00004244,-0
 .03012836,-0.01866924,-0.00362447,-0.05778617,-0.01967264,-0.10756269,
 0.00744008,0.00922882,0.00334286,-0.02251592,0.04070384,-0.45781106,-0
 .05622928,-0.05582965,0.87354077,0.00000863,0.00003512,-0.00056834,0.0
 0414478,-0.00098629,0.00151084,-0.00007429,0.00098482,-0.00009047,-0.0
 0016980,-0.00019250,-0.00002874,-0.00151782,-0.00193295,0.00059278,0.0
 0036884,0.00066804,-0.00026195,0.00065480,0.00061591,-0.00043166,-0.00
 836355,-0.03498770,0.00456802,-0.00372718,-0.00473840,-0.00102309,-0.0
 0085881,0.00050346,0.00090328,-0.05924951,0.06835423,-0.01881157,0.088
 12664,0.00000493,0.00005665,0.00022670,0.00066759,-0.00001395,-0.00077
 108,0.00026753,-0.00040647,0.00001180,0.00011808,0.00015048,-0.0000256
 6,0.00200298,0.00240949,0.00047818,-0.00066804,-0.00006053,0.00020800,
 0.00101469,0.00096008,-0.00028146,-0.00573871,-0.02138451,0.00567427,-
 0.00144838,-0.00122526,-0.00116592,-0.00137862,0.00465659,-0.00539095,
 0.07117152,-0.40457200,0.09504997,-0.06727672,0.42383811,0.00014863,-0
 .00018499,0.00025041,0.00072537,0.00039839,-0.00054474,-0.00025607,-0.
 00041511,0.00020832,0.00001299,0.00004971,0.00001738,0.00029281,-0.000
 33288,0.00004244,0.00026195,0.00020800,0.00003394,0.00058044,0.0003669
 6,-0.00000402,-0.00753123,-0.01328542,0.00277917,-0.00086437,-0.001671
 59,0.00028098,-0.00680938,0.03810735,0.00003526,-0.00859072,0.09296762
 ,-0.10538542,0.01742912,-0.09778935,0.09163636,-0.00013295,0.00008700,
 -0.00077193,0.00007575,-0.00155953,0.00105290,0.00047410,0.00099287,-0
 .00048872,-0.00030759,-0.00006993,-0.00015252,0.00033517,0.00085100,0.
 00110118,0.00000863,-0.00000493,-0.00014863,-0.00044962,-0.00008532,-0
 .00000069,0.00327183,0.00115723,0.00124897,-0.00035453,-0.00019371,-0.
 00008837,-0.00156844,0.00352731,-0.00008299,-0.00626628,-0.00760811,0.
 02933531,-0.00042931,-0.00035648,-0.00145233,0.05877781,-0.00008700,0.
 00013518,-0.00075301,-0.00034623,-0.00173329,0.00100155,0.00059214,0.0
 0114888,-0.00049427,-0.00040025,-0.00006588,-0.00008903,0.00062433,0.0
 0075515,0.00113114,-0.00003512,0.00005665,-0.00018499,-0.00007612,0.00
 034035,0.00018267,0.00103246,0.00023749,0.00168831,-0.00025176,0.00036
 779,-0.00008825,0.00650376,0.00111930,-0.00145380,-0.00887816,0.004805
 06,-0.01722613,-0.00281136,0.00187544,-0.00017763,-0.01527168,0.057852
 27,0.00077193,-0.00075301,0.00187003,0.00005988,0.00492929,-0.00238730
 ,-0.00153392,-0.00272821,0.00133866,0.00036409,0.00013719,0.00005905,-
 0.00225554,-0.00228631,-0.00219385,0.00056834,0.00022670,0.00025041,0.
 00015937,0.00014577,0.00018728,-0.00040990,0.00233014,0.00208054,0.000
 84929,-0.00058557,0.00008970,0.00282668,0.00000399,-0.00012417,-0.0103
 8422,0.00213388,-0.00294123,-0.00044346,0.00023231,-0.00002943,-0.0825
 8721,-0.08674482,0.45273270,0.00007575,0.00034623,-0.00005988,0.026698
 62,0.00605389,0.00966591,-0.00160361,-0.00273288,0.00081006,0.00249988
 ,-0.00152204,-0.00018860,-0.04278615,0.00752822,-0.00298651,0.00414478
 ,-0.00066759,-0.00072537,0.00252222,0.00192023,-0.00028542,-0.06323632
 ,-0.02942446,-0.00864678,-0.00102410,0.00068847,0.00015747,-0.00314145
 ,-0.00447391,-0.00052846,-0.19210956,0.14911359,0.14360775,-0.01827512
 ,0.00317664,0.00357817,-0.05251331,0.01621881,0.08997258,0.43808012,0.
 00155953,-0.00173329,0.00492929,-0.00605389,0.01449009,-0.00515656,-0.
 00458807,-0.00669323,0.00342078,0.00115398,0.00022647,0.00005957,-0.00
 705369,-0.00946538,-0.00806985,0.00098629,-0.00001395,0.00039839,-0.00
 114600,0.00022400,0.00231130,0.03616776,0.02073776,0.00609153,-0.00096
 556,-0.00326494,0.00287191,-0.00470732,0.00569583,0.00267838,0.0998440
 7,-0.14313056,-0.04648389,0.03632585,-0.00689377,-0.01680450,0.0087450
 3,-0.05402043,0.08719906,-0.27489329,0.35925133,-0.00105290,0.00100155
 ,-0.00238730,-0.00966591,-0.00515656,0.00463976,0.00219072,0.00464878,
 -0.00201707,-0.00086344,-0.00036419,-0.00012717,0.00282268,0.00001221,
 0.00104776,-0.00151084,-0.00077108,-0.00054474,-0.00450710,0.00140835,
 0.00294408,0.04002988,0.00972674,0.00323874,-0.00202622,0.00104562,0.0
 0043302,0.04209468,-0.01467621,-0.01093187,0.10692442,-0.05577713,-0.2
 1351827,-0.00714538,0.00486077,0.01088758,0.07274381,0.07807870,-0.451
 31498,-0.19241837,-0.11511834,0.74354141,0.00047410,-0.00059214,0.0015
 3392,-0.00160361,0.00458807,-0.00219072,-0.00062110,-0.00237538,0.0009
 3759,0.00036383,0.00024467,0.00006188,-0.00120415,-0.00165932,-0.00164
 986,-0.00007429,-0.00026753,0.00025607,-0.00027792,-0.00006618,0.00039
 829,0.00292326,0.00335250,0.00172085,-0.00271437,0.00047688,-0.0002422
 7,0.00069587,-0.00149990,-0.00126457,-0.01649750,0.02494789,-0.0136663
 7,-0.00063831,-0.00155699,0.00247462,-0.00092126,0.00318617,0.00204210
 ,-0.09933175,0.11462532,-0.04761602,0.11942720,-0.00099287,0.00114888,
 -0.00272821,0.00273288,-0.00669323,0.00464878,0.00237538,0.00379913,-0
 .00198712,-0.00030738,-0.00039561,-0.00008717,-0.00180602,0.00568595,0
 .00310908,-0.00098482,-0.00040647,-0.00041511,-0.00006818,0.00030306,-
 0.00044458,-0.00303632,-0.00783876,-0.00224673,-0.00389139,0.00204002,
 -0.00030125,-0.00312668,-0.00029781,0.00193365,0.00861367,-0.01708599,
 0.01068008,0.00543850,0.00060965,-0.00143655,0.00978925,-0.01287395,-0
 .00424040,0.12866808,-0.17540992,0.09108079,-0.14340409,0.20741505,0.0
 0048872,-0.00049427,0.00133866,-0.00081006,0.00342078,-0.00201707,-0.0
 0093759,-0.00198712,0.00094234,0.00025161,0.00019379,0.00006725,-0.000
 54307,-0.00163455,-0.00146709,0.00009047,0.00001180,0.00020832,0.00021
 500,0.00001859,0.00020208,0.00053766,0.00313185,0.00098112,0.00178897,
 -0.00025981,0.00039120,-0.00108029,-0.00050686,0.00128542,0.00065473,-
 0.00981384,0.00834165,0.00380066,-0.00131757,-0.00020821,-0.01970878,0
 .02512956,0.00038259,-0.04195253,0.08167293,-0.08589095,0.05720450,-0.
 09756527,0.07544272\\0.00000396,-0.00000070,-0.00006205,-0.00006421,-0
 .00006377,0.00009390,0.00003916,0.00005512,-0.00003184,-0.00001042,-0.
 00000365,0.00001989,0.00006945,0.00000328,-0.00003990,-0.00000040,-0.0
 0001380,0.00000184,0.,0.00001561,-0.00002881,0.,-0.00004212,0.00009877
 ,0.,0.00007356,-0.00003362,0.00001042,-0.00000365,0.00001989,-0.000069
 45,0.00000328,-0.00003990,0.00000040,-0.00001380,0.00000184,-0.0000039
 6,-0.00000070,-0.00006205,0.00006421,-0.00006377,0.00009390,-0.0000391
 6,0.00005512,-0.00003184\\\@


 AND THIS OUR LIFE, EXEMPT FROM PUBLIC HAUNT,
 FINDS TONGUES IN TREES, BOOKS IN THE RUNNING BROOKS,
 SERMONS IN STONES, AND GOOD IN EVERYTHING.
 I WOULD NOT CHANGE IT. -- W. SHAKESPEARE
 AS YOU LIKE IT, ACT II, SCENE 1.
 Job cpu time:       0 days  0 hours  1 minutes 53.0 seconds.
 Elapsed time:       0 days  0 hours  0 minutes  6.7 seconds.
 File lengths (MBytes):  RWF=      8 Int=      0 D2E=      0 Chk=      2 Scr=      1
 Normal termination of Gaussian 16 at Thu Nov  7 16:37:29 2024.
real 111.97
user 1713.62
sys 7.10
Machine:
bell-a350
bell-a350
bell-a350
bell-a350
bell-a350
bell-a350
bell-a350
bell-a350
bell-a350
bell-a350
bell-a350
bell-a350
bell-a350
bell-a350
bell-a350
bell-a350
bell-a350
bell-a350
bell-a350
bell-a350
