 Entering Gaussian System, Link 0=/apps/rhel6/g09-E.01/g09/g09
 Initial command:
 /apps/rhel6/g09-E.01/g09/l1.exe "/scratch/halstead/y/ypushkar/gaussian/Gau-35555.inp" -scrdir="/scratch/halstead/y/ypushkar/gaussian/"
 Entering Link 1 = /apps/rhel6/g09-E.01/g09/l1.exe PID=     35557.
  
 Copyright (c) 1988,1990,1992,1993,1995,1998,2003,2009,2015,
            Gaussian, Inc.  All Rights Reserved.
  
 This is part of the Gaussian(R) 09 program.  It is based on
 the Gaussian(R) 03 system (copyright 2003, Gaussian, Inc.),
 the Gaussian(R) 98 system (copyright 1998, Gaussian, Inc.),
 the Gaussian(R) 94 system (copyright 1995, Gaussian, Inc.),
 the Gaussian 92(TM) system (copyright 1992, Gaussian, Inc.),
 the Gaussian 90(TM) system (copyright 1990, Gaussian, Inc.),
 the Gaussian 88(TM) system (copyright 1988, Gaussian, Inc.),
 the Gaussian 86(TM) system (copyright 1986, Carnegie Mellon
 University), and the Gaussian 82(TM) system (copyright 1983,
 Carnegie Mellon University). Gaussian is a federally registered
 trademark of Gaussian, Inc.
  
 This software contains proprietary and confidential information,
 including trade secrets, belonging to Gaussian, Inc.
  
 This software is provided under written license and may be
 used, copied, transmitted, or stored only in accord with that
 written license.
  
 The following legend is applicable only to US Government
 contracts under FAR:
  
                    RESTRICTED RIGHTS LEGEND
  
 Use, reproduction and disclosure by the US Government is
 subject to restrictions as set forth in subparagraphs (a)
 and (c) of the Commercial Computer Software - Restricted
 Rights clause in FAR 52.227-19.
  
 Gaussian, Inc.
 340 Quinnipiac St., Bldg. 40, Wallingford CT 06492
  
  
 ---------------------------------------------------------------
 Warning -- This program may not be used in any manner that
 competes with the business of Gaussian, Inc. or will provide
 assistance to any competitor of Gaussian, Inc.  The licensee
 of this program is prohibited from giving any competitor of
 Gaussian, Inc. access to this program.  By using this program,
 the user acknowledges that Gaussian, Inc. is engaged in the
 business of creating and licensing software in the field of
 computational chemistry and represents and warrants to the
 licensee that it is not a competitor of Gaussian, Inc. and that
 it will not use this program in any manner prohibited above.
 ---------------------------------------------------------------
  

 Cite this work as:
 Gaussian 09, Revision E.01,
 M. J. Frisch, G. W. Trucks, H. B. Schlegel, G. E. Scuseria, 
 M. A. Robb, J. R. Cheeseman, G. Scalmani, V. Barone, B. Mennucci, 
 G. A. Petersson, H. Nakatsuji, M. Caricato, X. Li, H. P. Hratchian, 
 A. F. Izmaylov, J. Bloino, G. Zheng, J. L. Sonnenberg, M. Hada, 
 M. Ehara, K. Toyota, R. Fukuda, J. Hasegawa, M. Ishida, T. Nakajima, 
 Y. Honda, O. Kitao, H. Nakai, T. Vreven, J. A. Montgomery, Jr., 
 J. E. Peralta, F. Ogliaro, M. Bearpark, J. J. Heyd, E. Brothers, 
 K. N. Kudin, V. N. Staroverov, T. Keith, R. Kobayashi, J. Normand, 
 K. Raghavachari, A. Rendell, J. C. Burant, S. S. Iyengar, J. Tomasi, 
 M. Cossi, N. Rega, J. M. Millam, M. Klene, J. E. Knox, J. B. Cross, 
 V. Bakken, C. Adamo, J. Jaramillo, R. Gomperts, R. E. Stratmann, 
 O. Yazyev, A. J. Austin, R. Cammi, C. Pomelli, J. W. Ochterski, 
 R. L. Martin, K. Morokuma, V. G. Zakrzewski, G. A. Voth, 
 P. Salvador, J. J. Dannenberg, S. Dapprich, A. D. Daniels, 
 O. Farkas, J. B. Foresman, J. V. Ortiz, J. Cioslowski, 
 and D. J. Fox, Gaussian, Inc., Wallingford CT, 2013.
 
 ******************************************
 Gaussian 09:  ES64L-G09RevE.01 30-Nov-2015
                 9-Dec-2020 
 ******************************************
 %chk=OEC_Shen_spin7_charge_minus1_freq_18O_six_exchangable.chk
 %mem=50GB
 %nprocshared=20
 Will use up to   20 processors via shared memory.
 ----------------------------
 # freq(Raman) def2tzvp ubp86
 ----------------------------
 1/10=4,30=1,38=1/1,3;
 2/12=2,17=6,18=5,40=1/2;
 3/5=44,7=101,11=2,16=1,25=1,30=1,71=2,74=404,116=2,140=1/1,2,3;
 4//1;
 5/5=2,38=5,98=1/2;
 8/6=4,10=90,11=11/1;
 10/13=10,15=4/2;
 11/6=3,8=1,9=11,15=111,16=1/1,2,10;
 10/6=1/2;
 6/7=2,8=2,9=2,10=2,18=1,28=1/1;
 7/8=1,10=1,25=1/1,2,3,16;
 1/10=4,30=1/3;
 99//99;
 -------------------
 Title Card Required
 -------------------
 Symbolic Z-matrix:
 Charge = -1 Multiplicity = 7
 C                    -5.98097  -1.8474   -1.4136 
 C                    -4.60867  -1.95302  -0.74013 
 O                    -4.40135  -1.29096   0.29602 
 O                    -3.75628  -2.73379  -1.31408 
 C                    -0.77918   2.02822   5.56604 
 C                    -0.90251   1.49748   4.12983 
 O                    -1.97752   1.00612   3.7381 
 O                     0.19951   1.63779   3.45322 
 C                     5.80435  -2.98039   1.13289 
 O                     6.35859  -2.04014   0.55126 
 C                     4.41592  -2.65076   3.27322 
 C                     3.76208  -1.43751   2.67917 
 C                     2.43038  -1.09986   2.61083 
 C                     3.52033   0.57024   1.73928 
 N                     2.29843   0.14391   2.03065 
 N                     5.15945  -3.9857    0.47302 
 C                     3.58869  -3.22973  -1.33309 
 C                     2.33477  -3.94266  -0.82705 
 C                     1.03712  -3.15409  -1.01024 
 O                     1.11336  -1.91602  -1.23072 
 O                    -0.02936  -3.85536  -0.88284 
 C                     4.2912    2.88146  -2.82654 
 C                     3.00021   2.79001  -2.33569 
 N                     4.98988   1.72572  -2.52484 
 C                     4.12651   0.95884  -1.86697 
 N                     2.91036   1.55644  -1.72457 
 C                     1.88188   5.02462   0.61979 
 C                     1.14483   3.688     0.51253 
 O                     0.22531   3.60538  -0.37051 
 O                     1.52469   2.76344   1.28734 
 C                    -3.61121   2.91971  -0.1226 
 O                    -3.88311   1.95056   0.61848 
 O                    -2.51267   3.10866  -0.7804 
 Ca                   -2.49771  -0.10996   1.58568 
 O                    -1.14006   1.81716   1.13798 
 O                    -1.90172   0.48925  -1.14149 
 O                     0.48257   0.70514  -0.37466 
 O                    -1.36877  -2.00958  -2.34955 
 O(Iso=18)            -1.30258  -1.71061   0.07404 
 O(Iso=18)            -0.26017  -0.52391   2.03954 
 Mn                    0.41078   0.97827   1.63418 
 Mn                   -0.93156   1.96409  -0.64037 
 Mn                   -0.56041  -0.70258  -1.32253 
 Mn                   -1.82168  -3.07026  -0.91832 
 O(Iso=18)            -2.26282  -4.44788  -2.66224 
 O(Iso=18)            -5.02811   0.24333   2.41891 
 O(Iso=18)            -2.36776  -4.19594   0.52073 
 O(Iso=18)            -2.81927  -2.40161   2.61958 
 C                     0.3098    1.67825  -4.80018 
 C                    -0.05901   1.32227  -3.36305 
 O                    -0.46802   2.25411  -2.604 
 O                     0.10737   0.10195  -3.03347 
 H                    -6.73398  -2.01227  -0.62561 
 H                    -6.08472  -0.78859  -1.70361 
 H                     0.01474   1.44049   6.05729 
 H                    -0.38807   3.05682   5.50445 
 H                     3.69736  -3.48083   3.18463 
 H                     4.57259  -2.5102    4.35804 
 H                     1.53713  -1.64037   2.91112 
 H                     3.75769   1.508     1.24925 
 H                     3.54274  -3.12611  -2.42916 
 H                     3.6118   -2.20781  -0.92943 
 H                     2.20147  -4.92903  -1.2996 
 H                     2.40258  -4.12886   0.25986 
 H                     4.65897  -4.67089   1.03121 
 H                     2.15041   3.46469  -2.36451 
 H                     2.06692   1.17815  -1.2458 
 H                     4.33623  -0.03531  -1.48171 
 H                     2.05479   5.20807   1.69148 
 H                     2.87953   4.86009   0.176 
 H                     0.00845   0.82972  -5.43283 
 H                     1.41309   1.70535  -4.83133 
 H                    -1.77673  -3.74377  -3.16031 
 H                    -3.19126  -4.13128  -2.69964 
 H                    -5.22006  -0.30682   1.62354 
 H                    -4.93757   1.13955   2.02329 
 H                    -3.26442  -4.52989   0.33828 
 H                    -2.5892   -3.06018   1.89539 
 H                    -3.776    -2.51364   2.75103 
 C                     4.92834   4.0081   -3.5791 
 H                     5.81068   4.39656  -3.04467 
 H                     5.27391   3.67938  -4.57288 
 H                     4.22094   4.83804  -3.72027 
 C                    -0.27383   2.99797  -5.30414 
 H                     0.03886   3.83643  -4.66791 
 H                     0.06021   3.19761  -6.33407 
 H                    -1.37322   2.97484  -5.29743 
 C                    -6.22765  -2.76089  -2.61325 
 H                    -6.14823  -3.82216  -2.3345 
 H                    -7.23531  -2.59578  -3.02545 
 H                    -5.49867  -2.56783  -3.41264 
 C                    -2.07839   1.97243   6.36729 
 H                    -2.46012   0.9439    6.42591 
 H                    -1.92198   2.34783   7.39141 
 H                    -2.86229   2.57864   5.89174 
 C                    -4.62841   4.04488  -0.29154 
 H                    -4.42187   4.81587   0.46743 
 H                    -4.53922   4.51147  -1.28083 
 H                    -5.6458    3.66604  -0.13106 
 C                     1.18668   6.21017  -0.04897 
 H                     1.795     7.12279   0.05162 
 H                     1.01884   6.01945  -1.11732 
 H                     0.20347   6.40069   0.40477 
 C                     4.89878  -3.94329  -0.96819 
 H                     4.90236  -4.9802   -1.34231 
 H                     5.74777  -3.41457  -1.4226 
 C                     5.77816  -3.05927   2.65884 
 H                     6.57283  -2.38596   3.00944 
 H                     6.03521  -4.07348   3.00589 
 N                     4.44179  -0.35263   2.12981 
 H                     5.41275  -0.37676   1.81597 
 

 GradGradGradGradGradGradGradGradGradGradGradGradGradGradGradGradGradGrad
 Berny optimization.
 Initialization pass.
 Trust Radius=3.00D-01 FncErr=1.00D-07 GrdErr=1.00D-07
 Number of steps in this run=      2 maximum allowed number of steps=      2.
 GradGradGradGradGradGradGradGradGradGradGradGradGradGradGradGradGradGrad

 Stoichiometry    C28H50CaMn4N5O23(1-,7)
 Framework group  C1[X(C28H50CaMn4N5O23)]
 Deg. of freedom   327
 Full point group                 C1      NOp   1
 Largest Abelian subgroup         C1      NOp   1
 Largest concise Abelian subgroup C1      NOp   1
                         Standard orientation:                         
 ---------------------------------------------------------------------
 Center     Atomic      Atomic             Coordinates (Angstroms)
 Number     Number       Type             X           Y           Z
 ---------------------------------------------------------------------
      1          6           0       -5.980966   -1.847398   -1.413599
      2          6           0       -4.608670   -1.953016   -0.740131
      3          8           0       -4.401353   -1.290959    0.296017
      4          8           0       -3.756284   -2.733791   -1.314078
      5          6           0       -0.779179    2.028220    5.566042
      6          6           0       -0.902510    1.497480    4.129829
      7          8           0       -1.977516    1.006124    3.738101
      8          8           0        0.199508    1.637786    3.453221
      9          6           0        5.804351   -2.980384    1.132885
     10          8           0        6.358589   -2.040139    0.551260
     11          6           0        4.415922   -2.650763    3.273216
     12          6           0        3.762082   -1.437506    2.679166
     13          6           0        2.430384   -1.099860    2.610833
     14          6           0        3.520327    0.570235    1.739275
     15          7           0        2.298432    0.143906    2.030648
     16          7           0        5.159454   -3.985698    0.473015
     17          6           0        3.588688   -3.229726   -1.333093
     18          6           0        2.334768   -3.942658   -0.827052
     19          6           0        1.037118   -3.154091   -1.010244
     20          8           0        1.113364   -1.916015   -1.230716
     21          8           0       -0.029355   -3.855360   -0.882841
     22          6           0        4.291200    2.881457   -2.826542
     23          6           0        3.000211    2.790007   -2.335690
     24          7           0        4.989875    1.725720   -2.524835
     25          6           0        4.126510    0.958840   -1.866971
     26          7           0        2.910362    1.556442   -1.724570
     27          6           0        1.881884    5.024617    0.619794
     28          6           0        1.144828    3.687999    0.512529
     29          8           0        0.225308    3.605379   -0.370507
     30          8           0        1.524691    2.763436    1.287338
     31          6           0       -3.611212    2.919712   -0.122599
     32          8           0       -3.883114    1.950564    0.618477
     33          8           0       -2.512666    3.108657   -0.780399
     34         20           0       -2.497705   -0.109960    1.585684
     35          8           0       -1.140056    1.817159    1.137982
     36          8           0       -1.901721    0.489247   -1.141489
     37          8           0        0.482573    0.705138   -0.374661
     38          8           0       -1.368768   -2.009578   -2.349549
     39          8           0       -1.302576   -1.710606    0.074043
     40          8           0       -0.260171   -0.523909    2.039545
     41         25           0        0.410779    0.978269    1.634181
     42         25           0       -0.931561    1.964089   -0.640373
     43         25           0       -0.560410   -0.702583   -1.322531
     44         25           0       -1.821683   -3.070263   -0.918319
     45          8           0       -2.262821   -4.447878   -2.662236
     46          8           0       -5.028107    0.243325    2.418908
     47          8           0       -2.367759   -4.195941    0.520728
     48          8           0       -2.819267   -2.401608    2.619584
     49          6           0        0.309798    1.678248   -4.800179
     50          6           0       -0.059013    1.322265   -3.363050
     51          8           0       -0.468023    2.254112   -2.603997
     52          8           0        0.107372    0.101946   -3.033471
     53          1           0       -6.733978   -2.012269   -0.625607
     54          1           0       -6.084715   -0.788591   -1.703607
     55          1           0        0.014735    1.440489    6.057285
     56          1           0       -0.388071    3.056825    5.504452
     57          1           0        3.697361   -3.480831    3.184629
     58          1           0        4.572591   -2.510201    4.358043
     59          1           0        1.537129   -1.640365    2.911119
     60          1           0        3.757689    1.507998    1.249250
     61          1           0        3.542741   -3.126110   -2.429158
     62          1           0        3.611800   -2.207812   -0.929431
     63          1           0        2.201474   -4.929031   -1.299595
     64          1           0        2.402584   -4.128863    0.259862
     65          1           0        4.658969   -4.670886    1.031212
     66          1           0        2.150408    3.464687   -2.364511
     67          1           0        2.066923    1.178147   -1.245795
     68          1           0        4.336227   -0.035307   -1.481706
     69          1           0        2.054791    5.208073    1.691479
     70          1           0        2.879526    4.860094    0.176000
     71          1           0        0.008448    0.829720   -5.432834
     72          1           0        1.413085    1.705346   -4.831332
     73          1           0       -1.776726   -3.743765   -3.160308
     74          1           0       -3.191257   -4.131276   -2.699644
     75          1           0       -5.220057   -0.306823    1.623537
     76          1           0       -4.937574    1.139552    2.023285
     77          1           0       -3.264416   -4.529888    0.338280
     78          1           0       -2.589198   -3.060184    1.895389
     79          1           0       -3.776001   -2.513637    2.751031
     80          6           0        4.928339    4.008103   -3.579098
     81          1           0        5.810684    4.396556   -3.044665
     82          1           0        5.273906    3.679380   -4.572881
     83          1           0        4.220937    4.838041   -3.720272
     84          6           0       -0.273832    2.997971   -5.304138
     85          1           0        0.038861    3.836429   -4.667912
     86          1           0        0.060209    3.197609   -6.334069
     87          1           0       -1.373215    2.974835   -5.297429
     88          6           0       -6.227648   -2.760894   -2.613245
     89          1           0       -6.148227   -3.822158   -2.334501
     90          1           0       -7.235305   -2.595778   -3.025452
     91          1           0       -5.498666   -2.567831   -3.412640
     92          6           0       -2.078391    1.972428    6.367288
     93          1           0       -2.460117    0.943895    6.425912
     94          1           0       -1.921984    2.347828    7.391414
     95          1           0       -2.862294    2.578638    5.891740
     96          6           0       -4.628407    4.044880   -0.291535
     97          1           0       -4.421872    4.815865    0.467427
     98          1           0       -4.539222    4.511473   -1.280828
     99          1           0       -5.645802    3.666039   -0.131057
    100          6           0        1.186682    6.210167   -0.048965
    101          1           0        1.794995    7.122791    0.051620
    102          1           0        1.018838    6.019451   -1.117324
    103          1           0        0.203470    6.400689    0.404765
    104          6           0        4.898780   -3.943294   -0.968191
    105          1           0        4.902359   -4.980198   -1.342314
    106          1           0        5.747768   -3.414566   -1.422597
    107          6           0        5.778163   -3.059271    2.658840
    108          1           0        6.572833   -2.385962    3.009445
    109          1           0        6.035213   -4.073474    3.005888
    110          7           0        4.441785   -0.352626    2.129807
    111          1           0        5.412746   -0.376761    1.815969
 ---------------------------------------------------------------------
 Rotational constants (GHZ):      0.0411129      0.0339180      0.0305983
 Standard basis: def2TZVP (5D, 7F)
 There are  2563 symmetry adapted cartesian basis functions of A   symmetry.
 There are  2252 symmetry adapted basis functions of A   symmetry.
  2252 basis functions,  3741 primitive gaussians,  2563 cartesian basis functions
   282 alpha electrons      276 beta electrons
       nuclear repulsion energy     16425.3665410714 Hartrees.
 NAtoms=  111 NActive=  111 NUniq=  111 SFac= 1.00D+00 NAtFMM=   60 NAOKFM=T Big=T
 Integral buffers will be    131072 words long.
 Raffenetti 2 integral format.
 Two-electron integral symmetry is turned on.
 One-electron integrals computed using PRISM.
   1 Symmetry operations used in ECPInt.
 ECPInt:  NShTT=  396495 NPrTT= 1277675 LenC2=  269622 LenP2D=  536585.
 LDataN:  DoStor=T MaxTD1= 6 Len=  172
 NBasis=  2252 RedAO= T EigKep=  3.47D-05  NBF=  2252
 NBsUse=  2252 1.00D-06 EigRej= -1.00D+00 NBFU=  2252
 ExpMin= 2.68D-02 ExpMax= 2.77D+05 ExpMxC= 5.89D+03 IAcc=3 IRadAn=         5 AccDes= 0.00D+00
 Harris functional with IExCor=  404 and IRadAn=       5 diagonalized for initial guess.
 HarFok:  IExCor=  404 AccDes= 0.00D+00 IRadAn=         5 IDoV= 1 UseB2=F ITyADJ=14
 ICtDFT=  3500011 ScaDFX=  1.000000  1.000000  1.000000  1.000000
 FoFCou: FMM=F IPFlag=           0 FMFlag=      100000 FMFlg1=        2001
         NFxFlg=           0 DoJE=T BraDBF=F KetDBF=T FulRan=T
         wScrn=  0.000000 ICntrl=     500 IOpCl=  0 I1Cent=   200000004 NGrid=           0
         NMat0=    1 NMatS0=      1 NMatT0=    0 NMatD0=    1 NMtDS0=    0 NMtDT0=    0
 Petite list used in FoFCou.
 Initial guess <Sx>= 0.0000 <Sy>= 0.0000 <Sz>= 3.0000 <S**2>=12.0000 S= 3.0000
 Requested convergence on RMS density matrix=1.00D-08 within 128 cycles.
 Requested convergence on MAX density matrix=1.00D-06.
 Requested convergence on             energy=1.00D-06.
 No special actions if energy rises.
 EnCoef did     3 forward-backward iterations
 EnCoef did   100 forward-backward iterations
 EnCoef did   100 forward-backward iterations
 EnCoef did   100 forward-backward iterations
 EnCoef did   100 forward-backward iterations
 EnCoef did   100 forward-backward iterations
 EnCoef did   100 forward-backward iterations
 EnCoef did    19 forward-backward iterations
 EnCoef did    11 forward-backward iterations
 EnCoef did   100 forward-backward iterations
 EnCoef did   100 forward-backward iterations
 EnCoef did   100 forward-backward iterations
 EnCoef did   100 forward-backward iterations
 EnCoef did   100 forward-backward iterations
 EnCoef did   100 forward-backward iterations
 EnCoef did   100 forward-backward iterations
 EnCoef did   100 forward-backward iterations
 EnCoef did   100 forward-backward iterations
 Restarting incremental Fock formation.
 EnCoef did   100 forward-backward iterations
 EnCoef did   100 forward-backward iterations
 EnCoef did   100 forward-backward iterations
 EnCoef did   100 forward-backward iterations
 EnCoef did   100 forward-backward iterations
 EnCoef did   100 forward-backward iterations
 EnCoef did    25 forward-backward iterations
 EnCoef did   100 forward-backward iterations
 EnCoef did   100 forward-backward iterations
 EnCoef did    12 forward-backward iterations
 EnCoef did   100 forward-backward iterations
 EnCoef did   100 forward-backward iterations
 EnCoef did    15 forward-backward iterations
 EnCoef did    11 forward-backward iterations
 EnCoef did     5 forward-backward iterations
 EnCoef did   100 forward-backward iterations
 EnCoef did     5 forward-backward iterations
 EnCoef did     3 forward-backward iterations
 Restarting incremental Fock formation.
 EnCoef did     3 forward-backward iterations
 SCF Done:  E(UB-P86) =  -8385.78417520     A.U. after   53 cycles
            NFock= 53  Conv=0.51D-08     -V/T= 2.0028
 <Sx>= 0.0000 <Sy>= 0.0000 <Sz>= 3.0000 <S**2>=14.9847 S= 3.4032
 <L.S>= 0.000000000000E+00
 Annihilation of the first spin contaminant:
 S**2 before annihilation    14.9847,   after    15.2059
 Range of M.O.s used for correlation:     1  2252
 NBasis=  2252 NAE=   282 NBE=   276 NFC=     0 NFV=     0
 NROrb=   2252 NOA=   282 NOB=   276 NVA=  1970 NVB=  1976

 **** Warning!!: The largest alpha MO coefficient is  0.27900646D+02


 **** Warning!!: The smallest alpha delta epsilon is  0.28932000D-01


 **** Warning!!: The largest beta MO coefficient is  0.28052432D+02


 **** Warning!!: The smallest beta delta epsilon is  0.57126724D-01

          Differentiating once with respect to electric field.
                with respect to dipole field.
          Electric field/nuclear overlap derivatives assumed to be zero.
          There are     3 degrees of freedom in the 1st order CPHF.  IDoFFX=0 NUNeed=     3.
      3 vectors produced by pass  0 Test12= 3.67D-11 3.33D-08 XBig12= 3.58D+03 1.21D+01.
 AX will form     3 AO Fock derivatives at one time.
      3 vectors produced by pass  1 Test12= 3.67D-11 3.33D-08 XBig12= 1.41D+04 1.20D+01.
      3 vectors produced by pass  2 Test12= 3.67D-11 3.33D-08 XBig12= 6.96D+04 2.68D+01.
      3 vectors produced by pass  3 Test12= 3.67D-11 3.33D-08 XBig12= 1.71D+05 5.43D+01.
      3 vectors produced by pass  4 Test12= 3.67D-11 3.33D-08 XBig12= 6.03D+05 7.29D+01.
      3 vectors produced by pass  5 Test12= 3.67D-11 3.33D-08 XBig12= 2.95D+06 2.30D+02.
      3 vectors produced by pass  6 Test12= 3.67D-11 3.33D-08 XBig12= 7.30D+06 2.98D+02.
      3 vectors produced by pass  7 Test12= 3.67D-11 3.33D-08 XBig12= 1.70D+07 3.56D+02.
      3 vectors produced by pass  8 Test12= 3.67D-11 3.33D-08 XBig12= 1.44D+07 2.60D+02.
      3 vectors produced by pass  9 Test12= 3.67D-11 3.33D-08 XBig12= 1.35D+07 3.80D+02.
      3 vectors produced by pass 10 Test12= 3.67D-11 3.33D-08 XBig12= 1.20D+07 3.77D+02.
      3 vectors produced by pass 11 Test12= 3.67D-11 3.33D-08 XBig12= 1.24D+07 2.90D+02.
      3 vectors produced by pass 12 Test12= 3.67D-11 3.33D-08 XBig12= 1.35D+07 3.09D+02.
      3 vectors produced by pass 13 Test12= 3.67D-11 3.33D-08 XBig12= 1.18D+07 3.10D+02.
      3 vectors produced by pass 14 Test12= 3.67D-11 3.33D-08 XBig12= 7.67D+06 2.27D+02.
      3 vectors produced by pass 15 Test12= 3.67D-11 3.33D-08 XBig12= 1.01D+07 4.00D+02.
      3 vectors produced by pass 16 Test12= 3.67D-11 3.33D-08 XBig12= 8.05D+06 2.55D+02.
      3 vectors produced by pass 17 Test12= 3.67D-11 3.33D-08 XBig12= 5.74D+06 1.97D+02.
      3 vectors produced by pass 18 Test12= 3.67D-11 3.33D-08 XBig12= 2.55D+06 1.29D+02.
      3 vectors produced by pass 19 Test12= 3.67D-11 3.33D-08 XBig12= 8.76D+05 9.39D+01.
      3 vectors produced by pass 20 Test12= 3.67D-11 3.33D-08 XBig12= 4.29D+05 5.07D+01.
      3 vectors produced by pass 21 Test12= 3.67D-11 3.33D-08 XBig12= 2.08D+05 3.96D+01.
      3 vectors produced by pass 22 Test12= 3.67D-11 3.33D-08 XBig12= 8.07D+04 2.58D+01.
      3 vectors produced by pass 23 Test12= 3.67D-11 3.33D-08 XBig12= 3.57D+04 2.85D+01.
      3 vectors produced by pass 24 Test12= 3.67D-11 3.33D-08 XBig12= 1.86D+04 1.89D+01.
      3 vectors produced by pass 25 Test12= 3.67D-11 3.33D-08 XBig12= 9.30D+03 1.23D+01.
      3 vectors produced by pass 26 Test12= 3.67D-11 3.33D-08 XBig12= 3.35D+03 5.95D+00.
      3 vectors produced by pass 27 Test12= 3.67D-11 3.33D-08 XBig12= 1.93D+03 3.88D+00.
      3 vectors produced by pass 28 Test12= 3.67D-11 3.33D-08 XBig12= 1.00D+03 3.25D+00.
      3 vectors produced by pass 29 Test12= 3.67D-11 3.33D-08 XBig12= 3.80D+02 2.01D+00.
      3 vectors produced by pass 30 Test12= 3.67D-11 3.33D-08 XBig12= 1.06D+02 1.59D+00.
      3 vectors produced by pass 31 Test12= 3.67D-11 3.33D-08 XBig12= 3.26D+01 1.02D+00.
      3 vectors produced by pass 32 Test12= 3.67D-11 3.33D-08 XBig12= 1.18D+01 5.75D-01.
      3 vectors produced by pass 33 Test12= 3.67D-11 3.33D-08 XBig12= 5.12D+00 3.07D-01.
      3 vectors produced by pass 34 Test12= 3.67D-11 3.33D-08 XBig12= 1.46D+00 1.10D-01.
      3 vectors produced by pass 35 Test12= 3.67D-11 3.33D-08 XBig12= 3.60D-01 6.02D-02.
      3 vectors produced by pass 36 Test12= 3.67D-11 3.33D-08 XBig12= 1.03D-01 2.43D-02.
      3 vectors produced by pass 37 Test12= 3.67D-11 3.33D-08 XBig12= 2.52D-02 1.68D-02.
      3 vectors produced by pass 38 Test12= 3.67D-11 3.33D-08 XBig12= 3.71D-03 4.29D-03.
      3 vectors produced by pass 39 Test12= 3.67D-11 3.33D-08 XBig12= 5.89D-04 2.40D-03.
      3 vectors produced by pass 40 Test12= 3.67D-11 3.33D-08 XBig12= 1.35D-04 8.96D-04.
      3 vectors produced by pass 41 Test12= 3.67D-11 3.33D-08 XBig12= 4.18D-05 4.91D-04.
      3 vectors produced by pass 42 Test12= 3.67D-11 3.33D-08 XBig12= 9.21D-06 2.12D-04.
      3 vectors produced by pass 43 Test12= 3.67D-11 3.33D-08 XBig12= 1.39D-06 1.05D-04.
      3 vectors produced by pass 44 Test12= 3.67D-11 3.33D-08 XBig12= 2.71D-07 3.77D-05.
      3 vectors produced by pass 45 Test12= 3.67D-11 3.33D-08 XBig12= 9.26D-08 1.85D-05.
      3 vectors produced by pass 46 Test12= 3.67D-11 3.33D-08 XBig12= 1.97D-08 8.54D-06.
      3 vectors produced by pass 47 Test12= 3.67D-11 3.33D-08 XBig12= 2.64D-09 3.43D-06.
      3 vectors produced by pass 48 Test12= 3.67D-11 3.33D-08 XBig12= 3.01D-10 1.48D-06.
      3 vectors produced by pass 49 Test12= 3.67D-11 3.33D-08 XBig12= 4.43D-11 6.26D-07.
      3 vectors produced by pass 50 Test12= 3.67D-11 3.33D-08 XBig12= 6.83D-12 2.16D-07.
      3 vectors produced by pass 51 Test12= 3.67D-11 3.33D-08 XBig12= 9.58D-13 9.59D-08.
 InvSVY:  IOpt=1 It=  1 EMax= 2.52D-14
 Solved reduced A of dimension   156 with     3 vectors.
 End of Minotr F.D. properties file   721 does not exist.
 End of Minotr F.D. properties file   722 does not exist.
 End of Minotr F.D. properties file   788 does not exist.
 PrsmSu:  requested number of processors reduced to:   6 ShMem   1 Linda.
   1 Symmetry operations used in ECPInt.
 ECPInt:  NShTT=  396495 NPrTT= 1277675 LenC2=  269622 LenP2D=  536585.
 LDataN:  DoStor=T MaxTD1= 7 Len=  274
 Number of processors reduced to   2 by ecpmxn.
 Symmetrizing basis deriv contribution to polar:
 IMax=3 JMax=2 DiffMx= 0.00D+00
 G2DrvN: will do    14 centers at a time, making    8 passes.
 PxScal for G2LodP:  IOpCl= 1 ISclPx=1 IMOff=     1 NMtTot=     4 NTT= 2536878 ScalPx= 6.23D+00
 Calling FoFCou, ICntrl=  3507 FMM=T I1Cent=   0 AccDes= 0.00D+00.
 PxScal for G2LodP:  IOpCl= 1 ISclPx=1 IMOff=     1 NMtTot=     4 NTT= 2536878 ScalPx= 6.23D+00
 Calling FoFCou, ICntrl=  3507 FMM=T I1Cent=   0 AccDes= 0.00D+00.
 PxScal for G2LodP:  IOpCl= 1 ISclPx=1 IMOff=     1 NMtTot=     4 NTT= 2536878 ScalPx= 6.23D+00
 Calling FoFCou, ICntrl=  3507 FMM=T I1Cent=   0 AccDes= 0.00D+00.
 PxScal for G2LodP:  IOpCl= 1 ISclPx=1 IMOff=     1 NMtTot=     4 NTT= 2536878 ScalPx= 6.23D+00
 Calling FoFCou, ICntrl=  3507 FMM=T I1Cent=   0 AccDes= 0.00D+00.
 PxScal for G2LodP:  IOpCl= 1 ISclPx=1 IMOff=     1 NMtTot=     4 NTT= 2536878 ScalPx= 6.23D+00
 Calling FoFCou, ICntrl=  3507 FMM=T I1Cent=   0 AccDes= 0.00D+00.
 PxScal for G2LodP:  IOpCl= 1 ISclPx=1 IMOff=     1 NMtTot=     4 NTT= 2536878 ScalPx= 6.23D+00
 Calling FoFCou, ICntrl=  3507 FMM=T I1Cent=   0 AccDes= 0.00D+00.
 PxScal for G2LodP:  IOpCl= 1 ISclPx=1 IMOff=     1 NMtTot=     4 NTT= 2536878 ScalPx= 6.23D+00
 Calling FoFCou, ICntrl=  3507 FMM=T I1Cent=   0 AccDes= 0.00D+00.
 PxScal for G2LodP:  IOpCl= 1 ISclPx=1 IMOff=     1 NMtTot=     4 NTT= 2536878 ScalPx= 6.23D+00
 Calling FoFCou, ICntrl=  3507 FMM=T I1Cent=   0 AccDes= 0.00D+00.
 End of G2Drv F.D. properties file   721 does not exist.
 End of G2Drv F.D. properties file   722 does not exist.
 End of G2Drv F.D. properties file   788 does not exist.
          IDoAtm=11111111111111111111111111111111111111111111111111
          IDoAtm=11111111111111111111111111111111111111111111111111
          IDoAtm=11111111111
          Differentiating once with respect to electric field.
                with respect to dipole field.
          Differentiating once with respect to nuclear coordinates.
 CalDSu exits because no D1Ps are significant.
          There are   336 degrees of freedom in the 1st order CPHF.  IDoFFX=5 NUNeed=   336.
 Will reuse    3 saved solutions.
    333 vectors produced by pass  0 Test12= 1.10D-12 1.00D-09 XBig12= 7.32D-01 1.88D-01.
 AX will form    42 AO Fock derivatives at one time.
    333 vectors produced by pass  1 Test12= 1.10D-12 1.00D-09 XBig12= 3.66D-01 9.10D-02.
    333 vectors produced by pass  2 Test12= 1.10D-12 1.00D-09 XBig12= 3.15D-03 4.37D-03.
    330 vectors produced by pass  3 Test12= 1.10D-12 1.00D-09 XBig12= 3.26D-05 3.10D-04.
    330 vectors produced by pass  4 Test12= 1.10D-12 1.00D-09 XBig12= 1.68D-07 2.07D-05.
    315 vectors produced by pass  5 Test12= 1.10D-12 1.00D-09 XBig12= 4.96D-10 9.35D-07.
    210 vectors produced by pass  6 Test12= 1.10D-12 1.00D-09 XBig12= 1.23D-12 6.19D-08.
     72 vectors produced by pass  7 Test12= 1.10D-12 1.00D-09 XBig12= 3.93D-14 6.42D-09.
     30 vectors produced by pass  8 Test12= 1.10D-12 1.00D-09 XBig12= 1.94D-14 2.80D-09.
     22 vectors produced by pass  9 Test12= 1.10D-12 1.00D-09 XBig12= 1.53D-14 2.03D-09.
     21 vectors produced by pass 10 Test12= 1.10D-12 1.00D-09 XBig12= 2.30D-14 2.73D-09.
     21 vectors produced by pass 11 Test12= 1.10D-12 1.00D-09 XBig12= 1.83D-14 2.73D-09.
      5 vectors produced by pass 12 Test12= 1.10D-12 1.00D-09 XBig12= 4.83D-15 1.37D-09.
      5 vectors produced by pass 13 Test12= 1.10D-12 1.00D-09 XBig12= 1.60D-14 2.92D-09.
      5 vectors produced by pass 14 Test12= 1.10D-12 1.00D-09 XBig12= 1.26D-14 1.88D-09.
      5 vectors produced by pass 15 Test12= 1.10D-12 1.00D-09 XBig12= 1.49D-14 1.89D-09.
      5 vectors produced by pass 16 Test12= 1.10D-12 1.00D-09 XBig12= 2.86D-14 3.03D-09.
      5 vectors produced by pass 17 Test12= 1.10D-12 1.00D-09 XBig12= 1.38D-14 2.28D-09.
      5 vectors produced by pass 18 Test12= 1.10D-12 1.00D-09 XBig12= 1.52D-14 2.84D-09.
      5 vectors produced by pass 19 Test12= 1.10D-12 1.00D-09 XBig12= 1.03D-14 1.78D-09.
      5 vectors produced by pass 20 Test12= 1.10D-12 1.00D-09 XBig12= 1.73D-14 2.43D-09.
      5 vectors produced by pass 21 Test12= 1.10D-12 1.00D-09 XBig12= 1.78D-14 2.98D-09.
      5 vectors produced by pass 22 Test12= 1.10D-12 1.00D-09 XBig12= 1.14D-14 2.06D-09.
      5 vectors produced by pass 23 Test12= 1.10D-12 1.00D-09 XBig12= 1.12D-14 1.78D-09.
      5 vectors produced by pass 24 Test12= 1.10D-12 1.00D-09 XBig12= 1.33D-14 2.37D-09.
      5 vectors produced by pass 25 Test12= 1.10D-12 1.00D-09 XBig12= 1.55D-14 2.39D-09.
      5 vectors produced by pass 26 Test12= 1.10D-12 1.00D-09 XBig12= 9.26D-15 1.51D-09.
      5 vectors produced by pass 27 Test12= 1.10D-12 1.00D-09 XBig12= 2.02D-14 2.61D-09.
      5 vectors produced by pass 28 Test12= 1.10D-12 1.00D-09 XBig12= 2.05D-14 2.25D-09.
      5 vectors produced by pass 29 Test12= 1.10D-12 1.00D-09 XBig12= 1.03D-14 1.83D-09.
      5 vectors produced by pass 30 Test12= 1.10D-12 1.00D-09 XBig12= 2.38D-14 2.78D-09.
      5 vectors produced by pass 31 Test12= 1.10D-12 1.00D-09 XBig12= 1.13D-14 1.81D-09.
      5 vectors produced by pass 32 Test12= 1.10D-12 1.00D-09 XBig12= 1.86D-14 2.75D-09.
      4 vectors produced by pass 33 Test12= 1.10D-12 1.00D-09 XBig12= 1.29D-14 1.78D-09.
      4 vectors produced by pass 34 Test12= 1.10D-12 1.00D-09 XBig12= 1.42D-14 1.90D-09.
      4 vectors produced by pass 35 Test12= 1.10D-12 1.00D-09 XBig12= 1.36D-14 2.16D-09.
      1 vectors produced by pass 36 Test12= 1.10D-12 1.00D-09 XBig12= 4.88D-15 1.20D-09.
 InvSVY:  IOpt=1 It=  1 EMax= 1.11D-15
 Solved reduced A of dimension  2468 with   336 vectors.
 Isotropic polarizability for W=    0.000000      685.06 Bohr**3.
 End of Minotr F.D. properties file   721 does not exist.
 End of Minotr F.D. properties file   722 does not exist.
 End of Minotr F.D. properties file   788 does not exist.
 Hyperfine terms turned off by default for NAtoms > 100.

 **********************************************************************

            Population analysis using the SCF density.

 **********************************************************************

 Orbital symmetries:
 Alpha Orbitals:
       Occupied  (A) (A) (A) (A) (A) (A) (A) (A) (A) (A) (A) (A)
                 (A) (A) (A) (A) (A) (A) (A) (A) (A) (A) (A) (A)
                 (A) (A) (A) (A) (A) (A) (A) (A) (A) (A) (A) (A)
                 (A) (A) (A) (A) (A) (A) (A) (A) (A) (A) (A) (A)
                 (A) (A) (A) (A) (A) (A) (A) (A) (A) (A) (A) (A)
                 (A) (A) (A) (A) (A) (A) (A) (A) (A) (A) (A) (A)
                 (A) (A) (A) (A) (A) (A) (A) (A) (A) (A) (A) (A)
                 (A) (A) (A) (A) (A) (A) (A) (A) (A) (A) (A) (A)
                 (A) (A) (A) (A) (A) (A) (A) (A) (A) (A) (A) (A)
                 (A) (A) (A) (A) (A) (A) (A) (A) (A) (A) (A) (A)
                 (A) (A) (A) (A) (A) (A) (A) (A) (A) (A) (A) (A)
                 (A) (A) (A) (A) (A) (A) (A) (A) (A) (A) (A) (A)
                 (A) (A) (A) (A) (A) (A) (A) (A) (A) (A) (A) (A)
                 (A) (A) (A) (A) (A) (A) (A) (A) (A) (A) (A) (A)
                 (A) (A) (A) (A) (A) (A) (A) (A) (A) (A) (A) (A)
                 (A) (A) (A) (A) (A) (A) (A) (A) (A) (A) (A) (A)
                 (A) (A) (A) (A) (A) (A) (A) (A) (A) (A) (A) (A)
                 (A) (A) (A) (A) (A) (A) (A) (A) (A) (A) (A) (A)
                 (A) (A) (A) (A) (A) (A) (A) (A) (A) (A) (A) (A)
                 (A) (A) (A) (A) (A) (A) (A) (A) (A) (A) (A) (A)
                 (A) (A) (A) (A) (A) (A) (A) (A) (A) (A) (A) (A)
                 (A) (A) (A) (A) (A) (A) (A) (A) (A) (A) (A) (A)
                 (A) (A) (A) (A) (A) (A) (A) (A) (A) (A) (A) (A)
                 (A) (A) (A) (A) (A) (A)
       Virtual   (A) (A) (A) (A) (A) (A) (A) (A) (A) (A) (A) (A)
                 (A) (A) (A) (A) (A) (A) (A) (A) (A) (A) (A) (A)
                 (A) (A) (A) (A) (A) (A) (A) (A) (A) (A) (A) (A)
                 (A) (A) (A) (A) (A) (A) (A) (A) (A) (A) (A) (A)
                 (A) (A) (A) (A) (A) (A) (A) (A) (A) (A) (A) (A)
                 (A) (A) (A) (A) (A) (A) (A) (A) (A) (A) (A) (A)
                 (A) (A) (A) (A) (A) (A) (A) (A) (A) (A) (A) (A)
                 (A) (A) (A) (A) (A) (A) (A) (A) (A) (A) (A) (A)
                 (A) (A) (A) (A) (A) (A) (A) (A) (A) (A) (A) (A)
                 (A) (A) (A) (A) (A) (A) (A) (A) (A) (A) (A) (A)
                 (A) (A) (A) (A) (A) (A) (A) (A) (A) (A) (A) (A)
                 (A) (A) (A) (A) (A) (A) (A) (A) (A) (A) (A) (A)
                 (A) (A) (A) (A) (A) (A) (A) (A) (A) (A) (A) (A)
                 (A) (A) (A) (A) (A) (A) (A) (A) (A) (A) (A) (A)
                 (A) (A) (A) (A) (A) (A) (A) (A) (A) (A) (A) (A)
                 (A) (A) (A) (A) (A) (A) (A) (A) (A) (A) (A) (A)
                 (A) (A) (A) (A) (A) (A) (A) (A) (A) (A) (A) (A)
                 (A) (A) (A) (A) (A) (A) (A) (A) (A) (A) (A) (A)
                 (A) (A) (A) (A) (A) (A) (A) (A) (A) (A) (A) (A)
                 (A) (A) (A) (A) (A) (A) (A) (A) (A) (A) (A) (A)
                 (A) (A) (A) (A) (A) (A) (A) (A) (A) (A) (A) (A)
                 (A) (A) (A) (A) (A) (A) (A) (A) (A) (A) (A) (A)
                 (A) (A) (A) (A) (A) (A) (A) (A) (A) (A) (A) (A)
                 (A) (A) (A) (A) (A) (A) (A) (A) (A) (A) (A) (A)
                 (A) (A) (A) (A) (A) (A) (A) (A) (A) (A) (A) (A)
                 (A) (A) (A) (A) (A) (A) (A) (A) (A) (A) (A) (A)
                 (A) (A) (A) (A) (A) (A) (A) (A) (A) (A) (A) (A)
                 (A) (A) (A) (A) (A) (A) (A) (A) (A) (A) (A) (A)
                 (A) (A) (A) (A) (A) (A) (A) (A) (A) (A) (A) (A)
                 (A) (A) (A) (A) (A) (A) (A) (A) (A) (A) (A) (A)
                 (A) (A) (A) (A) (A) (A) (A) (A) (A) (A) (A) (A)
                 (A) (A) (A) (A) (A) (A) (A) (A) (A) (A) (A) (A)
                 (A) (A) (A) (A) (A) (A) (A) (A) (A) (A) (A) (A)
                 (A) (A) (A) (A) (A) (A) (A) (A) (A) (A) (A) (A)
                 (A) (A) (A) (A) (A) (A) (A) (A) (A) (A) (A) (A)
                 (A) (A) (A) (A) (A) (A) (A) (A) (A) (A) (A) (A)
                 (A) (A) (A) (A) (A) (A) (A) (A) (A) (A) (A) (A)
                 (A) (A) (A) (A) (A) (A) (A) (A) (A) (A) (A) (A)
                 (A) (A) (A) (A) (A) (A) (A) (A) (A) (A) (A) (A)
                 (A) (A) (A) (A) (A) (A) (A) (A) (A) (A) (A) (A)
                 (A) (A) (A) (A) (A) (A) (A) (A) (A) (A) (A) (A)
                 (A) (A) (A) (A) (A) (A) (A) (A) (A) (A) (A) (A)
                 (A) (A) (A) (A) (A) (A) (A) (A) (A) (A) (A) (A)
                 (A) (A) (A) (A) (A) (A) (A) (A) (A) (A) (A) (A)
                 (A) (A) (A) (A) (A) (A) (A) (A) (A) (A) (A) (A)
                 (A) (A) (A) (A) (A) (A) (A) (A) (A) (A) (A) (A)
                 (A) (A) (A) (A) (A) (A) (A) (A) (A) (A) (A) (A)
                 (A) (A) (A) (A) (A) (A) (A) (A) (A) (A) (A) (A)
                 (A) (A) (A) (A) (A) (A) (A) (A) (A) (A) (A) (A)
                 (A) (A) (A) (A) (A) (A) (A) (A) (A) (A) (A) (A)
                 (A) (A) (A) (A) (A) (A) (A) (A) (A) (A) (A) (A)
                 (A) (A) (A) (A) (A) (A) (A) (A) (A) (A) (A) (A)
                 (A) (A) (A) (A) (A) (A) (A) (A) (A) (A) (A) (A)
                 (A) (A) (A) (A) (A) (A) (A) (A) (A) (A) (A) (A)
                 (A) (A) (A) (A) (A) (A) (A) (A) (A) (A) (A) (A)
                 (A) (A) (A) (A) (A) (A) (A) (A) (A) (A) (A) (A)
                 (A) (A) (A) (A) (A) (A) (A) (A) (A) (A) (A) (A)
                 (A) (A) (A) (A) (A) (A) (A) (A) (A) (A) (A) (A)
                 (A) (A) (A) (A) (A) (A) (A) (A) (A) (A) (A) (A)
                 (A) (A) (A) (A) (A) (A) (A) (A) (A) (A) (A) (A)
                 (A) (A) (A) (A) (A) (A) (A) (A) (A) (A) (A) (A)
                 (A) (A) (A) (A) (A) (A) (A) (A) (A) (A) (A) (A)
                 (A) (A) (A) (A) (A) (A) (A) (A) (A) (A) (A) (A)
                 (A) (A) (A) (A) (A) (A) (A) (A) (A) (A) (A) (A)
                 (A) (A) (A) (A) (A) (A) (A) (A) (A) (A) (A) (A)
                 (A) (A) (A) (A) (A) (A) (A) (A) (A) (A) (A) (A)
                 (A) (A) (A) (A) (A) (A) (A) (A) (A) (A) (A) (A)
                 (A) (A) (A) (A) (A) (A) (A) (A) (A) (A) (A) (A)
                 (A) (A) (A) (A) (A) (A) (A) (A) (A) (A) (A) (A)
                 (A) (A) (A) (A) (A) (A) (A) (A) (A) (A) (A) (A)
                 (A) (A) (A) (A) (A) (A) (A) (A) (A) (A) (A) (A)
                 (A) (A) (A) (A) (A) (A) (A) (A) (A) (A) (A) (A)
                 (A) (A) (A) (A) (A) (A) (A) (A) (A) (A) (A) (A)
                 (A) (A) (A) (A) (A) (A) (A) (A) (A) (A) (A) (A)
                 (A) (A) (A) (A) (A) (A) (A) (A) (A) (A) (A) (A)
                 (A) (A) (A) (A) (A) (A) (A) (A) (A) (A) (A) (A)
                 (A) (A) (A) (A) (A) (A) (A) (A) (A) (A) (A) (A)
                 (A) (A) (A) (A) (A) (A) (A) (A) (A) (A) (A) (A)
                 (A) (A) (A) (A) (A) (A) (A) (A) (A) (A) (A) (A)
                 (A) (A) (A) (A) (A) (A) (A) (A) (A) (A) (A) (A)
                 (A) (A) (A) (A) (A) (A) (A) (A) (A) (A) (A) (A)
                 (A) (A) (A) (A) (A) (A) (A) (A) (A) (A) (A) (A)
                 (A) (A) (A) (A) (A) (A) (A) (A) (A) (A) (A) (A)
                 (A) (A) (A) (A) (A) (A) (A) (A) (A) (A) (A) (A)
                 (A) (A) (A) (A) (A) (A) (A) (A) (A) (A) (A) (A)
                 (A) (A) (A) (A) (A) (A) (A) (A) (A) (A) (A) (A)
                 (A) (A) (A) (A) (A) (A) (A) (A) (A) (A) (A) (A)
                 (A) (A) (A) (A) (A) (A) (A) (A) (A) (A) (A) (A)
                 (A) (A) (A) (A) (A) (A) (A) (A) (A) (A) (A) (A)
                 (A) (A) (A) (A) (A) (A) (A) (A) (A) (A) (A) (A)
                 (A) (A) (A) (A) (A) (A) (A) (A) (A) (A) (A) (A)
                 (A) (A) (A) (A) (A) (A) (A) (A) (A) (A) (A) (A)
                 (A) (A) (A) (A) (A) (A) (A) (A) (A) (A) (A) (A)
                 (A) (A) (A) (A) (A) (A) (A) (A) (A) (A) (A) (A)
                 (A) (A) (A) (A) (A) (A) (A) (A) (A) (A) (A) (A)
                 (A) (A) (A) (A) (A) (A) (A) (A) (A) (A) (A) (A)
                 (A) (A) (A) (A) (A) (A) (A) (A) (A) (A) (A) (A)
                 (A) (A) (A) (A) (A) (A) (A) (A) (A) (A) (A) (A)
                 (A) (A) (A) (A) (A) (A) (A) (A) (A) (A) (A) (A)
                 (A) (A) (A) (A) (A) (A) (A) (A) (A) (A) (A) (A)
                 (A) (A) (A) (A) (A) (A) (A) (A) (A) (A) (A) (A)
                 (A) (A) (A) (A) (A) (A) (A) (A) (A) (A) (A) (A)
                 (A) (A) (A) (A) (A) (A) (A) (A) (A) (A) (A) (A)
                 (A) (A) (A) (A) (A) (A) (A) (A) (A) (A) (A) (A)
                 (A) (A) (A) (A) (A) (A) (A) (A) (A) (A) (A) (A)
                 (A) (A) (A) (A) (A) (A) (A) (A) (A) (A) (A) (A)
                 (A) (A) (A) (A) (A) (A) (A) (A) (A) (A) (A) (A)
                 (A) (A) (A) (A) (A) (A) (A) (A) (A) (A) (A) (A)
                 (A) (A) (A) (A) (A) (A) (A) (A) (A) (A) (A) (A)
                 (A) (A) (A) (A) (A) (A) (A) (A) (A) (A) (A) (A)
                 (A) (A) (A) (A) (A) (A) (A) (A) (A) (A) (A) (A)
                 (A) (A) (A) (A) (A) (A) (A) (A) (A) (A) (A) (A)
                 (A) (A) (A) (A) (A) (A) (A) (A) (A) (A) (A) (A)
                 (A) (A) (A) (A) (A) (A) (A) (A) (A) (A) (A) (A)
                 (A) (A) (A) (A) (A) (A) (A) (A) (A) (A) (A) (A)
                 (A) (A) (A) (A) (A) (A) (A) (A) (A) (A) (A) (A)
                 (A) (A) (A) (A) (A) (A) (A) (A) (A) (A) (A) (A)
                 (A) (A) (A) (A) (A) (A) (A) (A) (A) (A) (A) (A)
                 (A) (A) (A) (A) (A) (A) (A) (A) (A) (A) (A) (A)
                 (A) (A) (A) (A) (A) (A) (A) (A) (A) (A) (A) (A)
                 (A) (A) (A) (A) (A) (A) (A) (A) (A) (A) (A) (A)
                 (A) (A) (A) (A) (A) (A) (A) (A) (A) (A) (A) (A)
                 (A) (A) (A) (A) (A) (A) (A) (A) (A) (A) (A) (A)
                 (A) (A) (A) (A) (A) (A) (A) (A) (A) (A) (A) (A)
                 (A) (A) (A) (A) (A) (A) (A) (A) (A) (A) (A) (A)
                 (A) (A) (A) (A) (A) (A) (A) (A) (A) (A) (A) (A)
                 (A) (A) (A) (A) (A) (A) (A) (A) (A) (A) (A) (A)
                 (A) (A) (A) (A) (A) (A) (A) (A) (A) (A) (A) (A)
                 (A) (A) (A) (A) (A) (A) (A) (A) (A) (A) (A) (A)
                 (A) (A) (A) (A) (A) (A) (A) (A) (A) (A) (A) (A)
                 (A) (A) (A) (A) (A) (A) (A) (A) (A) (A) (A) (A)
                 (A) (A) (A) (A) (A) (A) (A) (A) (A) (A) (A) (A)
                 (A) (A) (A) (A) (A) (A) (A) (A) (A) (A) (A) (A)
                 (A) (A) (A) (A) (A) (A) (A) (A) (A) (A) (A) (A)
                 (A) (A) (A) (A) (A) (A) (A) (A) (A) (A) (A) (A)
                 (A) (A) (A) (A) (A) (A) (A) (A) (A) (A) (A) (A)
                 (A) (A) (A) (A) (A) (A) (A) (A) (A) (A) (A) (A)
                 (A) (A) (A) (A) (A) (A) (A) (A) (A) (A) (A) (A)
                 (A) (A) (A) (A) (A) (A) (A) (A) (A) (A) (A) (A)
                 (A) (A) (A) (A) (A) (A) (A) (A) (A) (A) (A) (A)
                 (A) (A) (A) (A) (A) (A) (A) (A) (A) (A) (A) (A)
                 (A) (A) (A) (A) (A) (A) (A) (A) (A) (A) (A) (A)
                 (A) (A) (A) (A) (A) (A) (A) (A) (A) (A) (A) (A)
                 (A) (A) (A) (A) (A) (A) (A) (A) (A) (A) (A) (A)
                 (A) (A) (A) (A) (A) (A) (A) (A) (A) (A) (A) (A)
                 (A) (A) (A) (A) (A) (A) (A) (A) (A) (A) (A) (A)
                 (A) (A) (A) (A) (A) (A) (A) (A) (A) (A) (A) (A)
                 (A) (A) (A) (A) (A) (A) (A) (A) (A) (A) (A) (A)
                 (A) (A) (A) (A) (A) (A) (A) (A) (A) (A) (A) (A)
                 (A) (A) (A) (A) (A) (A) (A) (A) (A) (A) (A) (A)
                 (A) (A) (A) (A) (A) (A) (A) (A) (A) (A) (A) (A)
                 (A) (A) (A) (A) (A) (A) (A) (A) (A) (A) (A) (A)
                 (A) (A) (A) (A) (A) (A) (A) (A) (A) (A) (A) (A)
                 (A) (A) (A) (A) (A) (A) (A) (A) (A) (A) (A) (A)
                 (A) (A) (A) (A) (A) (A) (A) (A) (A) (A) (A) (A)
                 (A) (A) (A) (A) (A) (A) (A) (A) (A) (A) (A) (A)
                 (A) (A) (A) (A) (A) (A) (A) (A) (A) (A) (A) (A)
                 (A) (A) (A) (A) (A) (A) (A) (A) (A) (A) (A) (A)
                 (A) (A) (A) (A) (A) (A) (A) (A) (A) (A) (A) (A)
                 (A) (A) (A) (A) (A) (A) (A) (A) (A) (A) (A) (A)
                 (A) (A) (A) (A) (A) (A) (A) (A) (A) (A) (A) (A)
                 (A) (A) (A) (A) (A) (A) (A) (A) (A) (A) (A) (A)
                 (A) (A) (A) (A) (A) (A) (A) (A) (A) (A) (A) (A)
                 (A) (A) (A) (A) (A) (A) (A) (A) (A) (A) (A) (A)
                 (A) (A)
 Beta  Orbitals:
       Occupied  (A) (A) (A) (A) (A) (A) (A) (A) (A) (A) (A) (A)
                 (A) (A) (A) (A) (A) (A) (A) (A) (A) (A) (A) (A)
                 (A) (A) (A) (A) (A) (A) (A) (A) (A) (A) (A) (A)
                 (A) (A) (A) (A) (A) (A) (A) (A) (A) (A) (A) (A)
                 (A) (A) (A) (A) (A) (A) (A) (A) (A) (A) (A) (A)
                 (A) (A) (A) (A) (A) (A) (A) (A) (A) (A) (A) (A)
                 (A) (A) (A) (A) (A) (A) (A) (A) (A) (A) (A) (A)
                 (A) (A) (A) (A) (A) (A) (A) (A) (A) (A) (A) (A)
                 (A) (A) (A) (A) (A) (A) (A) (A) (A) (A) (A) (A)
                 (A) (A) (A) (A) (A) (A) (A) (A) (A) (A) (A) (A)
                 (A) (A) (A) (A) (A) (A) (A) (A) (A) (A) (A) (A)
                 (A) (A) (A) (A) (A) (A) (A) (A) (A) (A) (A) (A)
                 (A) (A) (A) (A) (A) (A) (A) (A) (A) (A) (A) (A)
                 (A) (A) (A) (A) (A) (A) (A) (A) (A) (A) (A) (A)
                 (A) (A) (A) (A) (A) (A) (A) (A) (A) (A) (A) (A)
                 (A) (A) (A) (A) (A) (A) (A) (A) (A) (A) (A) (A)
                 (A) (A) (A) (A) (A) (A) (A) (A) (A) (A) (A) (A)
                 (A) (A) (A) (A) (A) (A) (A) (A) (A) (A) (A) (A)
                 (A) (A) (A) (A) (A) (A) (A) (A) (A) (A) (A) (A)
                 (A) (A) (A) (A) (A) (A) (A) (A) (A) (A) (A) (A)
                 (A) (A) (A) (A) (A) (A) (A) (A) (A) (A) (A) (A)
                 (A) (A) (A) (A) (A) (A) (A) (A) (A) (A) (A) (A)
                 (A) (A) (A) (A) (A) (A) (A) (A) (A) (A) (A) (A)
       Virtual   (A) (A) (A) (A) (A) (A) (A) (A) (A) (A) (A) (A)
                 (A) (A) (A) (A) (A) (A) (A) (A) (A) (A) (A) (A)
                 (A) (A) (A) (A) (A) (A) (A) (A) (A) (A) (A) (A)
                 (A) (A) (A) (A) (A) (A) (A) (A) (A) (A) (A) (A)
                 (A) (A) (A) (A) (A) (A) (A) (A) (A) (A) (A) (A)
                 (A) (A) (A) (A) (A) (A) (A) (A) (A) (A) (A) (A)
                 (A) (A) (A) (A) (A) (A) (A) (A) (A) (A) (A) (A)
                 (A) (A) (A) (A) (A) (A) (A) (A) (A) (A) (A) (A)
                 (A) (A) (A) (A) (A) (A) (A) (A) (A) (A) (A) (A)
                 (A) (A) (A) (A) (A) (A) (A) (A) (A) (A) (A) (A)
                 (A) (A) (A) (A) (A) (A) (A) (A) (A) (A) (A) (A)
                 (A) (A) (A) (A) (A) (A) (A) (A) (A) (A) (A) (A)
                 (A) (A) (A) (A) (A) (A) (A) (A) (A) (A) (A) (A)
                 (A) (A) (A) (A) (A) (A) (A) (A) (A) (A) (A) (A)
                 (A) (A) (A) (A) (A) (A) (A) (A) (A) (A) (A) (A)
                 (A) (A) (A) (A) (A) (A) (A) (A) (A) (A) (A) (A)
                 (A) (A) (A) (A) (A) (A) (A) (A) (A) (A) (A) (A)
                 (A) (A) (A) (A) (A) (A) (A) (A) (A) (A) (A) (A)
                 (A) (A) (A) (A) (A) (A) (A) (A) (A) (A) (A) (A)
                 (A) (A) (A) (A) (A) (A) (A) (A) (A) (A) (A) (A)
                 (A) (A) (A) (A) (A) (A) (A) (A) (A) (A) (A) (A)
                 (A) (A) (A) (A) (A) (A) (A) (A) (A) (A) (A) (A)
                 (A) (A) (A) (A) (A) (A) (A) (A) (A) (A) (A) (A)
                 (A) (A) (A) (A) (A) (A) (A) (A) (A) (A) (A) (A)
                 (A) (A) (A) (A) (A) (A) (A) (A) (A) (A) (A) (A)
                 (A) (A) (A) (A) (A) (A) (A) (A) (A) (A) (A) (A)
                 (A) (A) (A) (A) (A) (A) (A) (A) (A) (A) (A) (A)
                 (A) (A) (A) (A) (A) (A) (A) (A) (A) (A) (A) (A)
                 (A) (A) (A) (A) (A) (A) (A) (A) (A) (A) (A) (A)
                 (A) (A) (A) (A) (A) (A) (A) (A) (A) (A) (A) (A)
                 (A) (A) (A) (A) (A) (A) (A) (A) (A) (A) (A) (A)
                 (A) (A) (A) (A) (A) (A) (A) (A) (A) (A) (A) (A)
                 (A) (A) (A) (A) (A) (A) (A) (A) (A) (A) (A) (A)
                 (A) (A) (A) (A) (A) (A) (A) (A) (A) (A) (A) (A)
                 (A) (A) (A) (A) (A) (A) (A) (A) (A) (A) (A) (A)
                 (A) (A) (A) (A) (A) (A) (A) (A) (A) (A) (A) (A)
                 (A) (A) (A) (A) (A) (A) (A) (A) (A) (A) (A) (A)
                 (A) (A) (A) (A) (A) (A) (A) (A) (A) (A) (A) (A)
                 (A) (A) (A) (A) (A) (A) (A) (A) (A) (A) (A) (A)
                 (A) (A) (A) (A) (A) (A) (A) (A) (A) (A) (A) (A)
                 (A) (A) (A) (A) (A) (A) (A) (A) (A) (A) (A) (A)
                 (A) (A) (A) (A) (A) (A) (A) (A) (A) (A) (A) (A)
                 (A) (A) (A) (A) (A) (A) (A) (A) (A) (A) (A) (A)
                 (A) (A) (A) (A) (A) (A) (A) (A) (A) (A) (A) (A)
                 (A) (A) (A) (A) (A) (A) (A) (A) (A) (A) (A) (A)
                 (A) (A) (A) (A) (A) (A) (A) (A) (A) (A) (A) (A)
                 (A) (A) (A) (A) (A) (A) (A) (A) (A) (A) (A) (A)
                 (A) (A) (A) (A) (A) (A) (A) (A) (A) (A) (A) (A)
                 (A) (A) (A) (A) (A) (A) (A) (A) (A) (A) (A) (A)
                 (A) (A) (A) (A) (A) (A) (A) (A) (A) (A) (A) (A)
                 (A) (A) (A) (A) (A) (A) (A) (A) (A) (A) (A) (A)
                 (A) (A) (A) (A) (A) (A) (A) (A) (A) (A) (A) (A)
                 (A) (A) (A) (A) (A) (A) (A) (A) (A) (A) (A) (A)
                 (A) (A) (A) (A) (A) (A) (A) (A) (A) (A) (A) (A)
                 (A) (A) (A) (A) (A) (A) (A) (A) (A) (A) (A) (A)
                 (A) (A) (A) (A) (A) (A) (A) (A) (A) (A) (A) (A)
                 (A) (A) (A) (A) (A) (A) (A) (A) (A) (A) (A) (A)
                 (A) (A) (A) (A) (A) (A) (A) (A) (A) (A) (A) (A)
                 (A) (A) (A) (A) (A) (A) (A) (A) (A) (A) (A) (A)
                 (A) (A) (A) (A) (A) (A) (A) (A) (A) (A) (A) (A)
                 (A) (A) (A) (A) (A) (A) (A) (A) (A) (A) (A) (A)
                 (A) (A) (A) (A) (A) (A) (A) (A) (A) (A) (A) (A)
                 (A) (A) (A) (A) (A) (A) (A) (A) (A) (A) (A) (A)
                 (A) (A) (A) (A) (A) (A) (A) (A) (A) (A) (A) (A)
                 (A) (A) (A) (A) (A) (A) (A) (A) (A) (A) (A) (A)
                 (A) (A) (A) (A) (A) (A) (A) (A) (A) (A) (A) (A)
                 (A) (A) (A) (A) (A) (A) (A) (A) (A) (A) (A) (A)
                 (A) (A) (A) (A) (A) (A) (A) (A) (A) (A) (A) (A)
                 (A) (A) (A) (A) (A) (A) (A) (A) (A) (A) (A) (A)
                 (A) (A) (A) (A) (A) (A) (A) (A) (A) (A) (A) (A)
                 (A) (A) (A) (A) (A) (A) (A) (A) (A) (A) (A) (A)
                 (A) (A) (A) (A) (A) (A) (A) (A) (A) (A) (A) (A)
                 (A) (A) (A) (A) (A) (A) (A) (A) (A) (A) (A) (A)
                 (A) (A) (A) (A) (A) (A) (A) (A) (A) (A) (A) (A)
                 (A) (A) (A) (A) (A) (A) (A) (A) (A) (A) (A) (A)
                 (A) (A) (A) (A) (A) (A) (A) (A) (A) (A) (A) (A)
                 (A) (A) (A) (A) (A) (A) (A) (A) (A) (A) (A) (A)
                 (A) (A) (A) (A) (A) (A) (A) (A) (A) (A) (A) (A)
                 (A) (A) (A) (A) (A) (A) (A) (A) (A) (A) (A) (A)
                 (A) (A) (A) (A) (A) (A) (A) (A) (A) (A) (A) (A)
                 (A) (A) (A) (A) (A) (A) (A) (A) (A) (A) (A) (A)
                 (A) (A) (A) (A) (A) (A) (A) (A) (A) (A) (A) (A)
                 (A) (A) (A) (A) (A) (A) (A) (A) (A) (A) (A) (A)
                 (A) (A) (A) (A) (A) (A) (A) (A) (A) (A) (A) (A)
                 (A) (A) (A) (A) (A) (A) (A) (A) (A) (A) (A) (A)
                 (A) (A) (A) (A) (A) (A) (A) (A) (A) (A) (A) (A)
                 (A) (A) (A) (A) (A) (A) (A) (A) (A) (A) (A) (A)
                 (A) (A) (A) (A) (A) (A) (A) (A) (A) (A) (A) (A)
                 (A) (A) (A) (A) (A) (A) (A) (A) (A) (A) (A) (A)
                 (A) (A) (A) (A) (A) (A) (A) (A) (A) (A) (A) (A)
                 (A) (A) (A) (A) (A) (A) (A) (A) (A) (A) (A) (A)
                 (A) (A) (A) (A) (A) (A) (A) (A) (A) (A) (A) (A)
                 (A) (A) (A) (A) (A) (A) (A) (A) (A) (A) (A) (A)
                 (A) (A) (A) (A) (A) (A) (A) (A) (A) (A) (A) (A)
                 (A) (A) (A) (A) (A) (A) (A) (A) (A) (A) (A) (A)
                 (A) (A) (A) (A) (A) (A) (A) (A) (A) (A) (A) (A)
                 (A) (A) (A) (A) (A) (A) (A) (A) (A) (A) (A) (A)
                 (A) (A) (A) (A) (A) (A) (A) (A) (A) (A) (A) (A)
                 (A) (A) (A) (A) (A) (A) (A) (A) (A) (A) (A) (A)
                 (A) (A) (A) (A) (A) (A) (A) (A) (A) (A) (A) (A)
                 (A) (A) (A) (A) (A) (A) (A) (A) (A) (A) (A) (A)
                 (A) (A) (A) (A) (A) (A) (A) (A) (A) (A) (A) (A)
                 (A) (A) (A) (A) (A) (A) (A) (A) (A) (A) (A) (A)
                 (A) (A) (A) (A) (A) (A) (A) (A) (A) (A) (A) (A)
                 (A) (A) (A) (A) (A) (A) (A) (A) (A) (A) (A) (A)
                 (A) (A) (A) (A) (A) (A) (A) (A) (A) (A) (A) (A)
                 (A) (A) (A) (A) (A) (A) (A) (A) (A) (A) (A) (A)
                 (A) (A) (A) (A) (A) (A) (A) (A) (A) (A) (A) (A)
                 (A) (A) (A) (A) (A) (A) (A) (A) (A) (A) (A) (A)
                 (A) (A) (A) (A) (A) (A) (A) (A) (A) (A) (A) (A)
                 (A) (A) (A) (A) (A) (A) (A) (A) (A) (A) (A) (A)
                 (A) (A) (A) (A) (A) (A) (A) (A) (A) (A) (A) (A)
                 (A) (A) (A) (A) (A) (A) (A) (A) (A) (A) (A) (A)
                 (A) (A) (A) (A) (A) (A) (A) (A) (A) (A) (A) (A)
                 (A) (A) (A) (A) (A) (A) (A) (A) (A) (A) (A) (A)
                 (A) (A) (A) (A) (A) (A) (A) (A) (A) (A) (A) (A)
                 (A) (A) (A) (A) (A) (A) (A) (A) (A) (A) (A) (A)
                 (A) (A) (A) (A) (A) (A) (A) (A) (A) (A) (A) (A)
                 (A) (A) (A) (A) (A) (A) (A) (A) (A) (A) (A) (A)
                 (A) (A) (A) (A) (A) (A) (A) (A) (A) (A) (A) (A)
                 (A) (A) (A) (A) (A) (A) (A) (A) (A) (A) (A) (A)
                 (A) (A) (A) (A) (A) (A) (A) (A) (A) (A) (A) (A)
                 (A) (A) (A) (A) (A) (A) (A) (A) (A) (A) (A) (A)
                 (A) (A) (A) (A) (A) (A) (A) (A) (A) (A) (A) (A)
                 (A) (A) (A) (A) (A) (A) (A) (A) (A) (A) (A) (A)
                 (A) (A) (A) (A) (A) (A) (A) (A) (A) (A) (A) (A)
                 (A) (A) (A) (A) (A) (A) (A) (A) (A) (A) (A) (A)
                 (A) (A) (A) (A) (A) (A) (A) (A) (A) (A) (A) (A)
                 (A) (A) (A) (A) (A) (A) (A) (A) (A) (A) (A) (A)
                 (A) (A) (A) (A) (A) (A) (A) (A) (A) (A) (A) (A)
                 (A) (A) (A) (A) (A) (A) (A) (A) (A) (A) (A) (A)
                 (A) (A) (A) (A) (A) (A) (A) (A) (A) (A) (A) (A)
                 (A) (A) (A) (A) (A) (A) (A) (A) (A) (A) (A) (A)
                 (A) (A) (A) (A) (A) (A) (A) (A) (A) (A) (A) (A)
                 (A) (A) (A) (A) (A) (A) (A) (A) (A) (A) (A) (A)
                 (A) (A) (A) (A) (A) (A) (A) (A) (A) (A) (A) (A)
                 (A) (A) (A) (A) (A) (A) (A) (A) (A) (A) (A) (A)
                 (A) (A) (A) (A) (A) (A) (A) (A) (A) (A) (A) (A)
                 (A) (A) (A) (A) (A) (A) (A) (A) (A) (A) (A) (A)
                 (A) (A) (A) (A) (A) (A) (A) (A) (A) (A) (A) (A)
                 (A) (A) (A) (A) (A) (A) (A) (A) (A) (A) (A) (A)
                 (A) (A) (A) (A) (A) (A) (A) (A) (A) (A) (A) (A)
                 (A) (A) (A) (A) (A) (A) (A) (A) (A) (A) (A) (A)
                 (A) (A) (A) (A) (A) (A) (A) (A) (A) (A) (A) (A)
                 (A) (A) (A) (A) (A) (A) (A) (A) (A) (A) (A) (A)
                 (A) (A) (A) (A) (A) (A) (A) (A) (A) (A) (A) (A)
                 (A) (A) (A) (A) (A) (A) (A) (A) (A) (A) (A) (A)
                 (A) (A) (A) (A) (A) (A) (A) (A) (A) (A) (A) (A)
                 (A) (A) (A) (A) (A) (A) (A) (A) (A) (A) (A) (A)
                 (A) (A) (A) (A) (A) (A) (A) (A) (A) (A) (A) (A)
                 (A) (A) (A) (A) (A) (A) (A) (A) (A) (A) (A) (A)
                 (A) (A) (A) (A) (A) (A) (A) (A) (A) (A) (A) (A)
                 (A) (A) (A) (A) (A) (A) (A) (A) (A) (A) (A) (A)
                 (A) (A) (A) (A) (A) (A) (A) (A) (A) (A) (A) (A)
                 (A) (A) (A) (A) (A) (A) (A) (A) (A) (A) (A) (A)
                 (A) (A) (A) (A) (A) (A) (A) (A) (A) (A) (A) (A)
                 (A) (A) (A) (A) (A) (A) (A) (A) (A) (A) (A) (A)
                 (A) (A) (A) (A) (A) (A) (A) (A) (A) (A) (A) (A)
                 (A) (A) (A) (A) (A) (A) (A) (A) (A) (A) (A) (A)
                 (A) (A) (A) (A) (A) (A) (A) (A) (A) (A) (A) (A)
                 (A) (A) (A) (A) (A) (A) (A) (A) (A) (A) (A) (A)
                 (A) (A) (A) (A) (A) (A) (A) (A) (A) (A) (A) (A)
                 (A) (A) (A) (A) (A) (A) (A) (A) (A) (A) (A) (A)
                 (A) (A) (A) (A) (A) (A) (A) (A) (A) (A) (A) (A)
                 (A) (A) (A) (A) (A) (A) (A) (A)
 The electronic state is 7-A.
 Alpha  occ. eigenvalues -- -234.21070-234.21015-234.20993-234.18444-144.21286
 Alpha  occ. eigenvalues --  -26.84203 -26.84164 -26.81233 -26.79582 -22.99162
 Alpha  occ. eigenvalues --  -22.99121 -22.98991 -22.98988 -22.98907 -22.98883
 Alpha  occ. eigenvalues --  -22.96370 -22.96280 -22.95703 -22.95648 -22.95470
 Alpha  occ. eigenvalues --  -22.95342 -18.71491 -18.69311 -18.69111 -18.68607
 Alpha  occ. eigenvalues --  -18.68465 -18.67606 -18.67575 -18.66992 -18.66788
 Alpha  occ. eigenvalues --  -18.66436 -18.66334 -18.66282 -18.66097 -18.65946
 Alpha  occ. eigenvalues --  -18.65929 -18.65909 -18.65307 -18.64871 -18.64779
 Alpha  occ. eigenvalues --  -18.64620 -18.64286 -18.63719 -18.61145 -14.87302
 Alpha  occ. eigenvalues --  -13.99030 -13.98101 -13.94381 -13.93838 -13.88227
 Alpha  occ. eigenvalues --  -12.07377 -12.07335 -12.07323  -9.94271  -9.93446
 Alpha  occ. eigenvalues --   -9.92863  -9.92133  -9.91324  -9.91169  -9.89809
 Alpha  occ. eigenvalues --   -9.88499  -9.87974  -9.87045  -9.86921  -9.86694
 Alpha  occ. eigenvalues --   -9.84585  -9.84022  -9.83955  -9.83538  -9.83352
 Alpha  occ. eigenvalues --   -9.82557  -9.82154  -9.82088  -9.82080  -9.81758
 Alpha  occ. eigenvalues --   -9.81130  -9.80987  -9.80960  -9.80858  -9.80710
 Alpha  occ. eigenvalues --   -9.79915  -3.00088  -2.99924  -2.96952  -2.89564
 Alpha  occ. eigenvalues --   -1.90566  -1.90406  -1.90160  -1.90089  -1.89968
 Alpha  occ. eigenvalues --   -1.89804  -1.87693  -1.87367  -1.86456  -1.80450
 Alpha  occ. eigenvalues --   -1.79964  -1.79617  -1.48675  -0.90558  -0.89798
 Alpha  occ. eigenvalues --   -0.89719  -0.89398  -0.88364  -0.87514  -0.87097
 Alpha  occ. eigenvalues --   -0.86718  -0.86473  -0.82610  -0.82588  -0.82485
 Alpha  occ. eigenvalues --   -0.82086  -0.81466  -0.81171  -0.80609  -0.80462
 Alpha  occ. eigenvalues --   -0.80136  -0.80083  -0.79703  -0.79281  -0.78305
 Alpha  occ. eigenvalues --   -0.75844  -0.74322  -0.73765  -0.73025  -0.71649
 Alpha  occ. eigenvalues --   -0.71393  -0.70872  -0.69085  -0.68407  -0.67341
 Alpha  occ. eigenvalues --   -0.65729  -0.63263  -0.62029  -0.61670  -0.61609
 Alpha  occ. eigenvalues --   -0.60640  -0.60100  -0.58560  -0.57346  -0.54368
 Alpha  occ. eigenvalues --   -0.53695  -0.51609  -0.50496  -0.50403  -0.49945
 Alpha  occ. eigenvalues --   -0.49202  -0.48897  -0.47681  -0.47079  -0.44730
 Alpha  occ. eigenvalues --   -0.43224  -0.42554  -0.41801  -0.41715  -0.40774
 Alpha  occ. eigenvalues --   -0.40524  -0.40311  -0.39685  -0.39456  -0.39164
 Alpha  occ. eigenvalues --   -0.38132  -0.37824  -0.37562  -0.36993  -0.36668
 Alpha  occ. eigenvalues --   -0.36504  -0.35684  -0.35030  -0.34955  -0.34937
 Alpha  occ. eigenvalues --   -0.34834  -0.34627  -0.34136  -0.34019  -0.33852
 Alpha  occ. eigenvalues --   -0.33596  -0.33459  -0.33069  -0.32723  -0.32421
 Alpha  occ. eigenvalues --   -0.32362  -0.32183  -0.32181  -0.31909  -0.31429
 Alpha  occ. eigenvalues --   -0.31133  -0.31051  -0.30846  -0.30335  -0.30281
 Alpha  occ. eigenvalues --   -0.30194  -0.29992  -0.29736  -0.29373  -0.28978
 Alpha  occ. eigenvalues --   -0.28953  -0.28800  -0.28694  -0.28413  -0.28288
 Alpha  occ. eigenvalues --   -0.28125  -0.27695  -0.27384  -0.27291  -0.27076
 Alpha  occ. eigenvalues --   -0.26870  -0.26728  -0.26618  -0.26355  -0.26182
 Alpha  occ. eigenvalues --   -0.26017  -0.25842  -0.25798  -0.25678  -0.25557
 Alpha  occ. eigenvalues --   -0.25241  -0.25094  -0.24990  -0.24826  -0.24700
 Alpha  occ. eigenvalues --   -0.24541  -0.24319  -0.24111  -0.23905  -0.23802
 Alpha  occ. eigenvalues --   -0.23668  -0.23575  -0.23383  -0.23308  -0.23114
 Alpha  occ. eigenvalues --   -0.22586  -0.22328  -0.22294  -0.21540  -0.21464
 Alpha  occ. eigenvalues --   -0.21232  -0.20957  -0.20490  -0.20224  -0.19909
 Alpha  occ. eigenvalues --   -0.19871  -0.19471  -0.19240  -0.18819  -0.18593
 Alpha  occ. eigenvalues --   -0.18522  -0.18043  -0.17833  -0.17491  -0.17375
 Alpha  occ. eigenvalues --   -0.16903  -0.16755  -0.16713  -0.16479  -0.16402
 Alpha  occ. eigenvalues --   -0.16290  -0.15906  -0.15689  -0.15340  -0.15137
 Alpha  occ. eigenvalues --   -0.15080  -0.14950  -0.14685  -0.14484  -0.14274
 Alpha  occ. eigenvalues --   -0.13971  -0.13876  -0.13746  -0.13643  -0.13224
 Alpha  occ. eigenvalues --   -0.12956  -0.12508  -0.12173  -0.11752  -0.11676
 Alpha  occ. eigenvalues --   -0.11306  -0.10497  -0.10187  -0.09885  -0.08860
 Alpha  occ. eigenvalues --   -0.06171  -0.05750
 Alpha virt. eigenvalues --   -0.02857  -0.02491  -0.02029  -0.01009  -0.00357
 Alpha virt. eigenvalues --   -0.00026   0.00653   0.01260   0.01402   0.02046
 Alpha virt. eigenvalues --    0.03690   0.04203   0.04490   0.04525   0.05669
 Alpha virt. eigenvalues --    0.06046   0.06332   0.06982   0.07188   0.07252
 Alpha virt. eigenvalues --    0.07679   0.08019   0.08541   0.09003   0.09203
 Alpha virt. eigenvalues --    0.09305   0.09668   0.10166   0.10461   0.10616
 Alpha virt. eigenvalues --    0.10968   0.11342   0.11405   0.11770   0.12039
 Alpha virt. eigenvalues --    0.12155   0.12588   0.12980   0.13238   0.13429
 Alpha virt. eigenvalues --    0.13965   0.14275   0.14296   0.14609   0.14769
 Alpha virt. eigenvalues --    0.15106   0.15385   0.15561   0.15747   0.15979
 Alpha virt. eigenvalues --    0.16019   0.16315   0.16560   0.16675   0.16974
 Alpha virt. eigenvalues --    0.17220   0.17386   0.17485   0.17554   0.17811
 Alpha virt. eigenvalues --    0.17929   0.18016   0.18387   0.18414   0.18532
 Alpha virt. eigenvalues --    0.18695   0.18740   0.18841   0.19157   0.19248
 Alpha virt. eigenvalues --    0.19454   0.19515   0.19924   0.19967   0.20212
 Alpha virt. eigenvalues --    0.20288   0.20392   0.20508   0.20627   0.21062
 Alpha virt. eigenvalues --    0.21103   0.21242   0.21433   0.21603   0.21618
 Alpha virt. eigenvalues --    0.21994   0.22410   0.22608   0.22699   0.22817
 Alpha virt. eigenvalues --    0.22923   0.23045   0.23406   0.23433   0.23757
 Alpha virt. eigenvalues --    0.23791   0.24059   0.24366   0.24641   0.24794
 Alpha virt. eigenvalues --    0.24894   0.25000   0.25205   0.25362   0.25636
 Alpha virt. eigenvalues --    0.25866   0.26188   0.26381   0.26602   0.26786
 Alpha virt. eigenvalues --    0.26872   0.27298   0.27450   0.27564   0.27908
 Alpha virt. eigenvalues --    0.28187   0.28315   0.28464   0.28645   0.28907
 Alpha virt. eigenvalues --    0.28989   0.29224   0.29423   0.29510   0.29662
 Alpha virt. eigenvalues --    0.29767   0.29884   0.30204   0.30422   0.30577
 Alpha virt. eigenvalues --    0.30649   0.31064   0.31185   0.31222   0.31631
 Alpha virt. eigenvalues --    0.31858   0.32152   0.32220   0.32623   0.32844
 Alpha virt. eigenvalues --    0.33138   0.33261   0.33421   0.33953   0.34122
 Alpha virt. eigenvalues --    0.34267   0.34591   0.34717   0.35139   0.35221
 Alpha virt. eigenvalues --    0.35464   0.35632   0.35749   0.35931   0.36182
 Alpha virt. eigenvalues --    0.36391   0.36520   0.36773   0.36916   0.36990
 Alpha virt. eigenvalues --    0.37284   0.37418   0.37463   0.37751   0.37930
 Alpha virt. eigenvalues --    0.38329   0.38546   0.38741   0.38900   0.39212
 Alpha virt. eigenvalues --    0.39355   0.39704   0.39914   0.39985   0.40284
 Alpha virt. eigenvalues --    0.40544   0.40616   0.40705   0.41105   0.41375
 Alpha virt. eigenvalues --    0.41560   0.41771   0.41870   0.42122   0.42161
 Alpha virt. eigenvalues --    0.42324   0.42495   0.42559   0.42836   0.42930
 Alpha virt. eigenvalues --    0.43064   0.43307   0.43506   0.43719   0.43835
 Alpha virt. eigenvalues --    0.43905   0.44120   0.44240   0.44308   0.44436
 Alpha virt. eigenvalues --    0.44698   0.44889   0.44905   0.45064   0.45179
 Alpha virt. eigenvalues --    0.45452   0.45488   0.45591   0.45703   0.45806
 Alpha virt. eigenvalues --    0.45914   0.46055   0.46138   0.46289   0.46571
 Alpha virt. eigenvalues --    0.46715   0.46791   0.47029   0.47072   0.47256
 Alpha virt. eigenvalues --    0.47397   0.47445   0.47643   0.47766   0.48077
 Alpha virt. eigenvalues --    0.48257   0.48306   0.48445   0.48468   0.48687
 Alpha virt. eigenvalues --    0.48794   0.48993   0.49028   0.49146   0.49251
 Alpha virt. eigenvalues --    0.49345   0.49471   0.49692   0.49760   0.49958
 Alpha virt. eigenvalues --    0.50103   0.50248   0.50370   0.50543   0.50670
 Alpha virt. eigenvalues --    0.50800   0.51005   0.51097   0.51341   0.51394
 Alpha virt. eigenvalues --    0.51492   0.51591   0.51666   0.51930   0.52026
 Alpha virt. eigenvalues --    0.52308   0.52454   0.52616   0.52787   0.52965
 Alpha virt. eigenvalues --    0.53053   0.53139   0.53246   0.53436   0.53697
 Alpha virt. eigenvalues --    0.53822   0.54007   0.54303   0.54406   0.54572
 Alpha virt. eigenvalues --    0.54631   0.54837   0.55063   0.55127   0.55279
 Alpha virt. eigenvalues --    0.55458   0.55646   0.55768   0.55943   0.56148
 Alpha virt. eigenvalues --    0.56547   0.56680   0.57033   0.57292   0.57340
 Alpha virt. eigenvalues --    0.57520   0.57755   0.57936   0.58224   0.58357
 Alpha virt. eigenvalues --    0.58427   0.58699   0.58939   0.59011   0.59183
 Alpha virt. eigenvalues --    0.59303   0.59622   0.59757   0.59948   0.60123
 Alpha virt. eigenvalues --    0.60467   0.60566   0.60861   0.60893   0.61126
 Alpha virt. eigenvalues --    0.61209   0.61621   0.61967   0.62039   0.62350
 Alpha virt. eigenvalues --    0.62537   0.62639   0.62863   0.63200   0.63332
 Alpha virt. eigenvalues --    0.63907   0.63960   0.64239   0.64642   0.64787
 Alpha virt. eigenvalues --    0.65051   0.65349   0.65724   0.65816   0.66152
 Alpha virt. eigenvalues --    0.66292   0.66660   0.66813   0.67231   0.67591
 Alpha virt. eigenvalues --    0.67996   0.68228   0.68409   0.68638   0.68968
 Alpha virt. eigenvalues --    0.69195   0.69438   0.69792   0.70261   0.70585
 Alpha virt. eigenvalues --    0.70758   0.71394   0.71560   0.71954   0.72101
 Alpha virt. eigenvalues --    0.72145   0.72441   0.72634   0.73153   0.73296
 Alpha virt. eigenvalues --    0.73773   0.73794   0.74284   0.74458   0.75074
 Alpha virt. eigenvalues --    0.75120   0.75250   0.75585   0.76002   0.76207
 Alpha virt. eigenvalues --    0.76398   0.76683   0.76713   0.77038   0.77534
 Alpha virt. eigenvalues --    0.77910   0.78065   0.78596   0.78843   0.79082
 Alpha virt. eigenvalues --    0.79335   0.79453   0.79671   0.79751   0.80071
 Alpha virt. eigenvalues --    0.80367   0.80715   0.81127   0.81252   0.81546
 Alpha virt. eigenvalues --    0.81762   0.81927   0.81999   0.82336   0.82528
 Alpha virt. eigenvalues --    0.82606   0.82989   0.83269   0.83530   0.83685
 Alpha virt. eigenvalues --    0.83892   0.84079   0.84386   0.84766   0.84965
 Alpha virt. eigenvalues --    0.85181   0.85246   0.85747   0.85884   0.86089
 Alpha virt. eigenvalues --    0.86402   0.86894   0.87124   0.87195   0.87324
 Alpha virt. eigenvalues --    0.87502   0.87681   0.87821   0.88158   0.88212
 Alpha virt. eigenvalues --    0.88498   0.88825   0.89092   0.89250   0.89788
 Alpha virt. eigenvalues --    0.89950   0.90357   0.90479   0.90548   0.90968
 Alpha virt. eigenvalues --    0.91082   0.91343   0.91617   0.91910   0.92203
 Alpha virt. eigenvalues --    0.92396   0.92723   0.92906   0.93046   0.93287
 Alpha virt. eigenvalues --    0.93382   0.93629   0.94042   0.94178   0.94462
 Alpha virt. eigenvalues --    0.94793   0.95226   0.95376   0.95614   0.95905
 Alpha virt. eigenvalues --    0.96133   0.96714   0.96820   0.96955   0.97283
 Alpha virt. eigenvalues --    0.97501   0.97782   0.97944   0.98733   0.98805
 Alpha virt. eigenvalues --    0.99097   0.99161   0.99328   0.99782   1.00091
 Alpha virt. eigenvalues --    1.00133   1.00606   1.00688   1.00979   1.01037
 Alpha virt. eigenvalues --    1.01211   1.01766   1.02009   1.02186   1.02344
 Alpha virt. eigenvalues --    1.02738   1.02992   1.03360   1.03669   1.03833
 Alpha virt. eigenvalues --    1.04031   1.04222   1.04437   1.04712   1.04828
 Alpha virt. eigenvalues --    1.05239   1.05552   1.05859   1.06109   1.06281
 Alpha virt. eigenvalues --    1.06471   1.06629   1.07062   1.07497   1.08115
 Alpha virt. eigenvalues --    1.08256   1.08417   1.08588   1.09097   1.09382
 Alpha virt. eigenvalues --    1.09515   1.10058   1.10149   1.10674   1.10957
 Alpha virt. eigenvalues --    1.11004   1.11253   1.11316   1.11734   1.11945
 Alpha virt. eigenvalues --    1.12323   1.12429   1.12650   1.12911   1.13072
 Alpha virt. eigenvalues --    1.13415   1.13874   1.14079   1.14232   1.14495
 Alpha virt. eigenvalues --    1.14629   1.15057   1.15378   1.15457   1.15579
 Alpha virt. eigenvalues --    1.15887   1.16142   1.16410   1.16714   1.16996
 Alpha virt. eigenvalues --    1.17200   1.17326   1.17633   1.17840   1.18140
 Alpha virt. eigenvalues --    1.18250   1.18423   1.18739   1.18838   1.19111
 Alpha virt. eigenvalues --    1.19585   1.19917   1.20015   1.20329   1.20458
 Alpha virt. eigenvalues --    1.20721   1.21082   1.21272   1.21640   1.21753
 Alpha virt. eigenvalues --    1.22068   1.22374   1.22641   1.22965   1.23094
 Alpha virt. eigenvalues --    1.23306   1.23433   1.23863   1.24374   1.24632
 Alpha virt. eigenvalues --    1.24931   1.25107   1.25331   1.25595   1.25743
 Alpha virt. eigenvalues --    1.26215   1.26385   1.26727   1.27066   1.27556
 Alpha virt. eigenvalues --    1.27780   1.28162   1.28264   1.28498   1.28734
 Alpha virt. eigenvalues --    1.29303   1.29476   1.29576   1.29888   1.30231
 Alpha virt. eigenvalues --    1.30745   1.31150   1.31380   1.31703   1.32053
 Alpha virt. eigenvalues --    1.32449   1.32716   1.33412   1.33493   1.34157
 Alpha virt. eigenvalues --    1.34507   1.34714   1.34922   1.35468   1.35982
 Alpha virt. eigenvalues --    1.36212   1.36564   1.36816   1.37399   1.37693
 Alpha virt. eigenvalues --    1.38321   1.38435   1.38966   1.39526   1.40046
 Alpha virt. eigenvalues --    1.40446   1.40790   1.41292   1.41649   1.42089
 Alpha virt. eigenvalues --    1.42342   1.43090   1.43420   1.43541   1.43605
 Alpha virt. eigenvalues --    1.44020   1.44492   1.44733   1.44882   1.45455
 Alpha virt. eigenvalues --    1.45954   1.46315   1.46481   1.47018   1.47220
 Alpha virt. eigenvalues --    1.47675   1.47826   1.48280   1.48622   1.48785
 Alpha virt. eigenvalues --    1.49414   1.49699   1.49981   1.50112   1.50426
 Alpha virt. eigenvalues --    1.50521   1.50960   1.51525   1.51533   1.51791
 Alpha virt. eigenvalues --    1.51916   1.52119   1.52203   1.52775   1.52910
 Alpha virt. eigenvalues --    1.52939   1.53220   1.53714   1.53873   1.54036
 Alpha virt. eigenvalues --    1.54202   1.54290   1.54496   1.54569   1.54731
 Alpha virt. eigenvalues --    1.54807   1.55040   1.55199   1.55535   1.55859
 Alpha virt. eigenvalues --    1.55950   1.56191   1.56332   1.56483   1.56674
 Alpha virt. eigenvalues --    1.56910   1.56995   1.57259   1.57393   1.57565
 Alpha virt. eigenvalues --    1.57718   1.57856   1.58093   1.58168   1.58475
 Alpha virt. eigenvalues --    1.58816   1.58873   1.59073   1.59284   1.59466
 Alpha virt. eigenvalues --    1.59787   1.59924   1.60080   1.60254   1.60562
 Alpha virt. eigenvalues --    1.60740   1.61146   1.61488   1.61731   1.61946
 Alpha virt. eigenvalues --    1.62368   1.62557   1.62681   1.62990   1.63175
 Alpha virt. eigenvalues --    1.63435   1.63818   1.64116   1.64307   1.64499
 Alpha virt. eigenvalues --    1.64582   1.64990   1.65230   1.65552   1.65797
 Alpha virt. eigenvalues --    1.66049   1.66112   1.66412   1.66820   1.66862
 Alpha virt. eigenvalues --    1.67175   1.67541   1.67785   1.67826   1.68259
 Alpha virt. eigenvalues --    1.68433   1.68704   1.68794   1.69279   1.69336
 Alpha virt. eigenvalues --    1.69684   1.69768   1.70467   1.70514   1.70746
 Alpha virt. eigenvalues --    1.70995   1.71229   1.71472   1.71907   1.72134
 Alpha virt. eigenvalues --    1.72848   1.72899   1.73088   1.73398   1.73741
 Alpha virt. eigenvalues --    1.73958   1.74127   1.74663   1.75188   1.75547
 Alpha virt. eigenvalues --    1.75828   1.75877   1.76483   1.76558   1.76927
 Alpha virt. eigenvalues --    1.77017   1.77596   1.77978   1.78201   1.78461
 Alpha virt. eigenvalues --    1.78555   1.79142   1.79468   1.79733   1.80016
 Alpha virt. eigenvalues --    1.80112   1.80250   1.80850   1.81208   1.81347
 Alpha virt. eigenvalues --    1.81685   1.81967   1.82417   1.82579   1.82989
 Alpha virt. eigenvalues --    1.83405   1.83541   1.83923   1.84224   1.84619
 Alpha virt. eigenvalues --    1.84769   1.85150   1.85400   1.85775   1.86102
 Alpha virt. eigenvalues --    1.86358   1.86838   1.87008   1.87241   1.87553
 Alpha virt. eigenvalues --    1.87987   1.88264   1.88496   1.88954   1.89331
 Alpha virt. eigenvalues --    1.89361   1.89579   1.89782   1.90054   1.90452
 Alpha virt. eigenvalues --    1.90893   1.91341   1.91562   1.92052   1.92230
 Alpha virt. eigenvalues --    1.92498   1.92762   1.93011   1.93256   1.93991
 Alpha virt. eigenvalues --    1.94147   1.94203   1.94465   1.94813   1.95134
 Alpha virt. eigenvalues --    1.95579   1.96144   1.96403   1.96678   1.97122
 Alpha virt. eigenvalues --    1.97274   1.97589   1.97926   1.98146   1.98444
 Alpha virt. eigenvalues --    1.98988   1.99227   1.99553   1.99994   2.00498
 Alpha virt. eigenvalues --    2.00618   2.01025   2.01122   2.01283   2.01610
 Alpha virt. eigenvalues --    2.01805   2.02494   2.02881   2.03171   2.03547
 Alpha virt. eigenvalues --    2.03667   2.03912   2.04247   2.04583   2.04991
 Alpha virt. eigenvalues --    2.05370   2.05567   2.05966   2.06194   2.06369
 Alpha virt. eigenvalues --    2.06557   2.07004   2.07119   2.07618   2.07877
 Alpha virt. eigenvalues --    2.08060   2.08138   2.08770   2.09158   2.09179
 Alpha virt. eigenvalues --    2.09414   2.09678   2.10056   2.10484   2.10595
 Alpha virt. eigenvalues --    2.10988   2.11255   2.11605   2.11870   2.12203
 Alpha virt. eigenvalues --    2.12441   2.12661   2.13228   2.13398   2.13972
 Alpha virt. eigenvalues --    2.14135   2.14499   2.14829   2.15151   2.15174
 Alpha virt. eigenvalues --    2.15592   2.15925   2.16605   2.16903   2.17415
 Alpha virt. eigenvalues --    2.17581   2.17786   2.18034   2.18215   2.18396
 Alpha virt. eigenvalues --    2.19425   2.20018   2.20283   2.20502   2.20709
 Alpha virt. eigenvalues --    2.21162   2.21312   2.21587   2.22322   2.22572
 Alpha virt. eigenvalues --    2.22974   2.23043   2.23776   2.24020   2.24144
 Alpha virt. eigenvalues --    2.24518   2.24796   2.25038   2.25362   2.25576
 Alpha virt. eigenvalues --    2.25804   2.26103   2.26435   2.26744   2.27116
 Alpha virt. eigenvalues --    2.27253   2.27441   2.27589   2.27881   2.28533
 Alpha virt. eigenvalues --    2.28891   2.28999   2.29234   2.29406   2.29787
 Alpha virt. eigenvalues --    2.30184   2.30353   2.30537   2.30714   2.30838
 Alpha virt. eigenvalues --    2.31418   2.31597   2.31682   2.31866   2.32486
 Alpha virt. eigenvalues --    2.32727   2.32789   2.33120   2.33354   2.33421
 Alpha virt. eigenvalues --    2.33753   2.34122   2.34203   2.34703   2.35015
 Alpha virt. eigenvalues --    2.35249   2.35498   2.35857   2.36289   2.36386
 Alpha virt. eigenvalues --    2.36619   2.36888   2.36949   2.37494   2.37733
 Alpha virt. eigenvalues --    2.37932   2.38046   2.38736   2.38788   2.39046
 Alpha virt. eigenvalues --    2.39140   2.39975   2.40049   2.40504   2.40662
 Alpha virt. eigenvalues --    2.40922   2.41386   2.41462   2.41716   2.41897
 Alpha virt. eigenvalues --    2.42497   2.42597   2.43093   2.43326   2.43492
 Alpha virt. eigenvalues --    2.43729   2.43961   2.44287   2.44468   2.44740
 Alpha virt. eigenvalues --    2.45107   2.45811   2.46076   2.46373   2.46642
 Alpha virt. eigenvalues --    2.46753   2.47174   2.47488   2.47985   2.48375
 Alpha virt. eigenvalues --    2.48996   2.49279   2.49704   2.50164   2.50400
 Alpha virt. eigenvalues --    2.50785   2.50927   2.51380   2.51683   2.52008
 Alpha virt. eigenvalues --    2.52300   2.52649   2.52999   2.53207   2.53694
 Alpha virt. eigenvalues --    2.53857   2.54049   2.54167   2.54371   2.54632
 Alpha virt. eigenvalues --    2.54778   2.55182   2.55530   2.55936   2.56115
 Alpha virt. eigenvalues --    2.56233   2.56349   2.56804   2.57479   2.57595
 Alpha virt. eigenvalues --    2.57843   2.58098   2.58294   2.58492   2.58695
[...]
 0744008,0.00753386,-0.00570141,0.04044227,0.06940453,-0.08626523,0.025
 98135,0.01254249,0.00471156,-0.02552817,0.06129480,-0.09012128,-0.0104
 8739,0.00567027,0.01885961,-0.00022109,-0.00035302,0.00034543,0.000005
 68,0.00020782,-0.00001569,0.00004967,0.00002455,-0.00004771,0.00011594
 ,0.00000550,-0.00005579,-0.00003078,-0.00002023,0.00005364,-0.00008896
 ,-0.00003080,0.00002222,-0.00006628,0.00003084,0.00002703,0.00001867,-
 0.00000495,-0.00000709,0.00004466,0.00004986,-0.00005828,-0.00009890,-
 0.00011068,0.00003410,0.00007648,-0.00000987,-0.00018452,0.00003961,0.
 00001793,-0.00003416,0.00010832,-0.00040350,0.00034490,-0.00007799,0.0
 0004991,-0.00013361,-0.00027218,0.00047564,-0.00001844,0.00011882,-0.0
 0001014,-0.00005149,-0.00006474,-0.00000462,0.00001993,-0.00013850,0.0
 0004743,0.00002620,0.00013408,0.00009064,-0.00000983,-0.00013002,-0.00
 006444,-0.00022728,-0.00003346,-0.00006617,-0.00003493,-0.00021386,-0.
 00004104,-0.00022449,-0.00005899,-0.00012417,-0.00003487,-0.00001951,-
 0.00005852,0.00006240,0.00041451,-0.00073657,0.00013841,0.00211086,0.0
 0083761,0.00131713,0.00011218,-0.00006607,0.00013790,0.00007658,0.0002
 6133,0.00005972,0.00009471,0.00010654,-0.00010227,-0.00002871,-0.00005
 069,-0.00003224,-0.00004280,-0.00001265,0.00001813,-0.00002741,-0.0000
 6129,0.00008726,0.00000463,-0.00003454,0.00005130,0.00001494,-0.000009
 14,-0.00000665,-0.00001784,0.00003012,0.00007271,0.00001698,-0.0000191
 5,-0.00010230,-0.00000815,-0.00001152,-0.00003893,-0.00000444,-0.00000
 100,0.00000024,-0.00000068,-0.00000044,-0.00000190,-0.00000239,-0.0000
 1131,0.00002070,-0.00001332,0.00001202,0.00000016,-0.00066154,-0.00048
 655,-0.00009397,0.00032337,-0.00001638,-0.00006671,-0.00016296,0.00126
 316,0.00323113,-0.01150314,0.00435882,-0.00336949,-0.00001825,-0.00007
 088,-0.00004081,0.00010471,0.00005612,0.00027420,-0.00003277,-0.000023
 54,0.00001512,0.00004104,-0.00001196,-0.00000291,-0.00013444,0.0000324
 2,-0.00010062,0.00000197,0.00000477,0.00000619,0.00004783,0.00002398,0
 .00008219,0.00000908,0.00001974,0.00007948,-0.00002189,0.00002259,0.00
 001613,-0.00000389,-0.00000172,-0.00002443,-0.00000302,0.00000030,-0.0
 0000590,-0.00000078,0.00000295,0.00000291,0.00001182,0.00002859,0.0000
 1729,0.00001138,0.00000951,0.00000595,0.00001183,0.00000224,-0.0000080
 6,0.00002389,0.00000844,-0.00001376,0.00000670,0.00000933,-0.00000125,
 -0.00001100,-0.00000531,-0.00004396,0.00000147,0.00000651,-0.00001174,
 -0.00000885,-0.00001178,0.00000936,0.00002204,0.00002284,-0.00000230,0
 .00000922,0.00000551,-0.00001595,-0.00000175,0.00000943,-0.00000234,0.
 00000130,-0.00000433,0.00000143,0.00000015,-0.00000297,0.00000518,0.00
 000217,0.00000320,-0.00001016,-0.00000433,0.00000101,0.00000198,-0.000
 00029,0.00000243,0.00000012,0.00000325,-0.00000190,0.00000010,-0.00000
 702,0.00000060,-0.00000362,0.00000240,-0.00000102,0.00000315,0.0000159
 1,0.00001036,0.00002051,-0.00000415,-0.00000102,-0.00000976,-0.0000112
 2,0.00000797,0.00002738,0.00000158,-0.00000631,-0.00000525,-0.00001610
 ,0.00001061,0.00000800,-0.00000103,0.00000307,0.00000213,0.00000056,-0
 .00000010,-0.00000359,-0.00000887,0.00000184,-0.00000020,0.00001013,0.
 00001012,0.00001557,0.00000436,0.00002528,-0.00000504,0.00000083,-0.00
 001084,0.00000652,-0.00000489,-0.00000323,-0.00000162,-0.00009198,0.00
 009352,0.00015188,0.00001088,-0.00004010,0.00000351,0.00001200,0.00002
 775,0.00001954,-0.00054204,-0.00117112,0.00065618,0.00016113,0.0001332
 2,0.00014420,0.00026172,0.00002015,0.00000355,-0.13971977,-0.17847520,
 0.21353855,0.00000680,-0.00001017,-0.00000096,-0.00005642,-0.00000235,
 -0.00003257,0.00004574,0.00002481,0.00003532,0.00003879,0.00000105,0.0
 0001104,-0.00001415,0.00000883,-0.00002012,-0.00031096,-0.00004876,0.0
 0019877,0.00018320,0.00005624,-0.00000908,0.00024201,-0.00004688,-0.00
 015320,0.00304786,0.00438497,-0.00265827,-0.00237409,-0.00430960,0.000
 73489,0.00078740,-0.00072080,-0.00060498,-0.00690110,-0.00008596,0.000
 54510,0.00104378,-0.00100586,0.00171186,-0.01345157,-0.00362425,0.0034
 7594,0.00127044,0.00401278,-0.00032494,-0.00151572,-0.00203533,-0.0003
 7213,0.00011113,-0.00020342,-0.00012314,-0.00007642,0.00014874,-0.0000
 7917,0.00018483,-0.00034728,0.00000486,-0.00011436,0.00028853,0.000060
 16,-0.00015028,0.00009505,-0.00000579,0.00006705,-0.00009264,-0.000009
 54,-0.00005141,0.00004567,0.00001214,-0.00011315,0.00001418,0.00005110
 ,0.00020065,0.00010729,-0.00001315,-0.00017429,0.00004969,0.00014005,-
 0.00002452,-0.00002350,0.00001049,-0.00016136,0.00037374,-0.00036614,0
 .00016153,-0.00003678,0.00021800,0.00024696,-0.00038133,0.00018679,-0.
 00011831,0.00001052,0.00005040,0.00005722,0.00000042,-0.00001123,0.000
 14773,-0.00004789,-0.00001347,-0.00016416,-0.00005389,-0.00006440,0.00
 015431,-0.00010190,0.00015006,0.00002950,0.00009976,0.00005016,0.00022
 528,-0.00002227,0.00023074,0.00004952,0.00014288,0.00007959,0.00003127
 ,0.00004266,0.00000131,-0.00001098,-0.00016969,0.00000231,-0.00052192,
 0.00035878,-0.00012042,-0.00021964,0.00003461,-0.00024487,-0.00004391,
 -0.00028215,-0.00019173,-0.00002993,-0.00014646,-0.00001362,0.00002644
 ,0.00007931,0.00006398,0.00005148,0.00000933,-0.00000597,0.00002152,0.
 00006473,-0.00002182,0.00002708,0.00003052,-0.00000520,-0.00001532,0.0
 0000462,0.00001026,0.00003332,-0.00004018,-0.00010803,-0.00002315,0.00
 002802,0.00014090,-0.00001346,0.00000565,0.00006961,0.00000321,0.00000
 161,0.00000079,0.00000024,0.00000131,0.00000195,0.00000433,0.00000046,
 0.00001299,0.00000304,-0.00000172,0.00000063,-0.00016464,0.00021401,-0
 .00000414,-0.00022117,0.00040536,-0.00012569,0.00016666,0.00029257,0.0
 0022277,0.00032374,-0.00011393,-0.00089847,-0.00008032,0.00006831,-0.0
 0000580,0.00004234,0.00006396,0.00000181,0.00000786,0.00001776,0.00002
 802,0.00004810,-0.00005605,-0.00000958,-0.00019919,-0.00017713,-0.0001
 8055,-0.00000456,-0.00000548,-0.00000661,-0.00004914,0.00001930,-0.000
 11661,0.00006300,-0.00013107,-0.00016009,0.00000483,0.00000602,0.00000
 368,0.00000576,0.00000385,-0.00000227,0.00000699,0.00000066,0.00000778
 ,-0.00000191,-0.00000725,-0.00000147,-0.00000395,-0.00004507,-0.000029
 57,-0.00000961,-0.00001497,-0.00001436,-0.00001427,-0.00000630,-0.0000
 0217,-0.00002366,-0.00000497,0.00000727,-0.00000044,-0.00001146,0.0000
 0035,-0.00001115,-0.00001774,-0.00000961,-0.00000056,-0.00000341,0.000
 00817,0.00001395,0.00002023,-0.00001500,-0.00002100,-0.00003153,-0.000
 00247,-0.00000865,-0.00000804,0.00002691,-0.00000453,-0.00000481,-0.00
 000027,-0.00000349,0.00000426,0.00000053,0.00000177,0.00000464,-0.0000
 0625,-0.00000183,-0.00000521,0.00001380,0.00000232,-0.00000059,-0.0000
 0363,0.00000202,-0.00000261,-0.00000002,-0.00000343,0.00000268,-0.0000
 0073,0.00000879,-0.00000034,0.00000471,-0.00000374,0.00000063,-0.00000
 244,-0.00000511,-0.00000584,0.00000247,0.00000171,0.00000416,0.0000041
 9,0.00000344,-0.00000584,-0.00002067,0.00000900,-0.00000069,0.00000276
 ,0.00001660,-0.00001225,-0.00001090,0.00000080,-0.00000205,-0.00000185
 ,-0.00000113,-0.00000042,0.00000448,0.00000961,-0.00000145,-0.00000063
 ,-0.00000564,0.00000212,-0.00000643,-0.00000549,-0.00002515,0.00000135
 ,0.00000613,0.00000334,0.00000452,0.00000683,-0.00000132,0.00000185,0.
 00010957,-0.00009149,0.00055327,-0.00008285,-0.00001797,-0.00006342,0.
 00001873,0.00008999,0.00009143,0.00067073,-0.00014698,0.00059753,-0.00
 031308,0.00040806,-0.00029266,-0.00022261,-0.00010846,0.00005228,-0.37
 256662,0.00961190,0.10970005,0.39062925,0.00000268,-0.00000553,-0.0000
 0397,-0.00002727,0.00005954,0.00006133,0.00000179,-0.00003412,-0.00004
 582,0.00008299,-0.00004046,-0.00001638,0.00002190,-0.00000001,-0.00000
 508,0.00007076,0.00002096,0.00003228,-0.00006075,-0.00003749,-0.000057
 98,-0.00009424,-0.00000564,-0.00007899,-0.00344236,-0.00773258,0.00139
 891,-0.00003052,0.00481544,0.00021592,-0.00050653,0.00056018,-0.000693
 65,-0.02394032,0.00823391,0.00103295,-0.00370632,-0.00654755,0.0040540
 8,0.01581378,0.00685391,-0.01262173,0.00555839,-0.00136467,0.00373782,
 0.00149255,0.00199911,0.00080787,-0.00012358,-0.00000178,0.00014380,0.
 00006292,-0.00016909,0.00011114,-0.00042210,0.00023223,-0.00001800,0.0
 0026160,-0.00026367,0.00001215,0.00038247,-0.00005243,-0.00000383,-0.0
 0002177,-0.00005003,0.00002707,0.00001772,0.00004584,-0.00002683,-0.00
 012904,-0.00017421,-0.00008121,0.00002331,0.00016598,-0.00020463,-0.00
 005965,-0.00014007,-0.00000628,0.00001431,-0.00001701,-0.00001112,0.00
 022639,-0.00004767,0.00024909,-0.00023701,-0.00013140,-0.00017983,-0.0
 0026602,0.00004745,-0.00007469,-0.00001078,0.00002500,-0.00000798,0.00
 001122,-0.00002313,0.00000724,0.00001384,-0.00003029,0.00001412,-0.000
 00335,0.00003119,0.00006701,0.00015236,-0.00018891,0.00005140,0.000025
 00,-0.00014929,-0.00003521,-0.00007030,-0.00012335,0.00002956,0.000008
 81,-0.00009490,-0.00002344,0.00000172,-0.00005966,0.00000645,0.0000097
 5,0.00020881,-0.00031250,-0.00055708,0.00090639,0.00023856,0.00015161,
 0.00027050,-0.00003200,-0.00012896,0.00034628,0.00000218,-0.00019890,0
 .00011944,0.00001111,0.00001301,-0.00002761,-0.00001494,-0.00000183,-0
 .00001550,-0.00001501,0.00001757,-0.00002661,-0.00002452,-0.00000176,-
 0.00002395,-0.00002740,0.00000703,-0.00000294,0.00000399,0.00000252,0.
 00012248,-0.00000175,-0.00001646,-0.00007333,-0.00000569,-0.00000933,-
 0.00010251,0.00004854,0.00000315,0.00000051,-0.00000029,0.00000250,-0.
 00000169,0.00000142,-0.00000022,0.00000872,-0.00001233,0.00000395,-0.0
 0001040,-0.00000061,0.00017026,-0.00006675,-0.00010602,0.00018608,0.00
 003323,-0.00009466,-0.00053457,0.00090399,-0.00000249,-0.00048674,-0.0
 0049496,-0.00025287,0.00011749,0.00000218,0.00007646,-0.00006955,0.000
 10366,-0.00002997,0.00001897,0.00000973,-0.00002340,-0.00006691,0.0000
 2292,0.00001844,0.00016149,0.00005174,0.00017092,0.00001282,0.00001139
 ,0.00001884,0.00016156,0.00009226,-0.00002499,0.00003316,0.00012822,0.
 00008587,0.00001439,-0.00001867,-0.00001878,-0.00001663,-0.00001979,0.
 00003552,-0.00000841,-0.00000422,-0.00000378,0.00000032,0.00000818,0.0
 0001551,-0.00001413,0.00002000,0.00000225,-0.00000431,0.00000405,0.000
 00411,-0.00000439,0.00001360,0.00001400,0.00000146,0.00000492,0.000004
 82,-0.00000086,0.00000290,0.00000239,-0.00000495,0.00002541,0.00003182
 ,-0.00000273,0.00000391,0.00000398,0.00001538,-0.00000076,0.00002165,-
 0.00001228,-0.00001066,0.00000960,0.00000391,-0.00000195,-0.00001802,-
 0.00000712,0.00000584,-0.00000085,-0.00000352,0.00000404,0.00000726,0.
 00000459,-0.00000654,-0.00000248,0.00000198,-0.00000130,0.00000247,-0.
 00000347,-0.00000068,-0.00000171,-0.00000082,0.00000011,-0.00000128,-0
 .00000174,-0.00000189,0.00000067,0.00000247,-0.00000037,0.00000066,-0.
 00000088,0.00000154,-0.00000168,-0.00000468,-0.00000301,-0.00001092,-0
 .00000204,-0.00000363,0.00000279,0.00000367,0.00000041,-0.00000331,-0.
 00000440,0.00000300,0.00000193,0.00000423,-0.00000289,-0.00000225,0.00
 000262,-0.00000265,-0.00000236,0.00000168,0.00000047,0.00000203,0.0000
 0046,-0.00000155,0.00000062,-0.00001749,-0.00001425,0.00000188,0.00000
 259,-0.00000775,0.00000159,0.00000181,0.00000689,-0.00000992,-0.000011
 71,0.00001319,0.00000131,0.00003020,0.00004811,-0.00078481,0.00008845,
 0.00006958,0.00010834,-0.00003842,-0.00010625,-0.00010508,0.00012929,-
 0.00053180,0.00008852,0.00064759,-0.00030761,0.00032886,0.00022568,0.0
 0026605,-0.00013687,0.01574862,-0.05620100,0.01988898,-0.00686158,0.04
 864511,0.00000199,-0.00000659,-0.00000362,-0.00003223,0.00006161,0.000
 06585,0.00000486,-0.00003440,-0.00005344,0.00008253,-0.00003884,-0.000
 02116,0.00002465,-0.00001195,-0.00000216,0.00010626,0.00005944,0.00000
 656,-0.00009466,-0.00007140,-0.00007153,-0.00014923,0.00002955,-0.0000
 5245,-0.00289442,-0.00475975,0.00358081,-0.00002845,0.00414236,-0.0033
 0418,-0.00029981,-0.00036417,-0.00103997,0.00591557,-0.00690956,-0.005
 25339,0.00211280,0.00128646,0.00149414,-0.01316799,-0.00631794,0.00086
 353,-0.00401215,0.00564199,0.00172506,0.00126817,0.00188579,-0.0001081
 1,-0.00004837,-0.00012482,0.00004127,-0.00000183,-0.00006624,0.0001162
 1,-0.00032488,0.00002649,-0.00000834,0.00022240,-0.00010478,-0.0000053
 4,0.00032459,0.00000718,-0.00001186,0.00012257,-0.00000918,-0.00004634
 ,0.00003418,-0.00030642,0.00008277,0.00018497,-0.00003432,0.00006085,-
 0.00020531,0.00038618,0.00006150,0.00004955,0.00006377,-0.00004478,-0.
 00001599,0.00000782,0.00001154,0.00010169,-0.00006841,0.00019072,-0.00
 007929,-0.00003007,-0.00013717,-0.00007345,0.00006448,-0.00012062,-0.0
 0002804,-0.00001814,0.00003629,-0.00000022,0.00000815,-0.00003288,0.00
 003443,-0.00001399,-0.00003994,0.00000725,0.00005732,0.00009414,-0.000
 18742,0.00011265,-0.00032252,0.00004318,-0.00011574,-0.00004989,0.0001
 3461,-0.00007785,-0.00016307,0.00002920,-0.00003967,-0.00003811,0.0000
 2859,-0.00002089,-0.00000941,0.00016832,-0.00033424,-0.00018007,0.0008
 2617,-0.00003804,0.00104636,-0.00008982,0.00013076,0.00030369,-0.00019
 630,0.00021311,0.00008739,-0.00019996,0.00004384,0.00003729,0.00001653
 ,-0.00001283,-0.00001311,-0.00000052,-0.00001323,-0.00002285,0.0000273
 6,0.00000459,-0.00005052,0.00000566,-0.00002005,-0.00004180,-0.0000107
 9,-0.00000010,-0.00000682,-0.00006100,0.00007757,0.00004167,0.00006009
 ,-0.00003846,-0.00011402,0.00005550,-0.00003310,-0.00002880,0.00000395
 ,0.00000053,-0.00000092,0.00000174,-0.00000097,0.00000203,-0.00000217,
 0.00001424,-0.00001171,0.00000538,-0.00000971,0.00000176,-0.00002196,-
 0.00031395,0.00011484,0.00015330,0.00029084,-0.00021877,-0.00004921,0.
 00051967,0.00171366,0.00002692,-0.00050598,-0.00124089,0.00005571,0.00
 001708,0.00004063,-0.00008510,0.00011616,0.00005196,0.00003660,0.00002
 534,-0.00001797,-0.00002620,0.00000841,-0.00000479,0.00027460,0.000054
 67,0.00027192,-0.00000763,-0.00002255,0.00001340,-0.00020432,-0.000042
 64,0.00013868,-0.00016488,-0.00015602,-0.00024689,0.00001437,-0.000014
 71,-0.00002027,0.00001224,0.00001125,0.00002500,0.00000393,0.00000142,
 -0.00000298,0.00000591,-0.00000146,-0.00001988,-0.00001615,0.00000817,
 0.00000246,-0.00000645,0.00000080,0.00000431,-0.00000658,0.00001456,0.
 00001804,0.00000025,0.00000112,0.00001002,-0.00000103,-0.00000145,0.00
 000442,-0.00001121,0.00002354,0.00004014,-0.00000075,0.00000145,0.0000
 1053,0.00002642,0.00000768,-0.00001171,-0.00002574,-0.00000837,0.00000
 117,-0.00001580,-0.00000141,0.00001553,0.00001090,-0.00002492,0.000010
 79,0.00000587,0.00000018,-0.00000697,-0.00000802,0.00000236,0.00000084
 ,-0.00000246,0.00000083,-0.00000053,0.00000877,-0.00000110,0.00000394,
 -0.00000151,-0.00000088,-0.00000029,-0.00000196,-0.00000051,0.00000010
 ,0.00000261,-0.00000074,0.00000103,-0.00000031,0.00000099,-0.00000248,
 -0.00000438,-0.00000020,-0.00001034,-0.00000052,-0.00000228,0.00000385
 ,0.00000419,-0.00000196,-0.00000436,-0.00000743,0.00000400,0.00000111,
 0.00000547,0.00000197,0.00000215,-0.00000008,-0.00000162,-0.00000053,-
 0.00000068,0.00000129,-0.00000065,0.00000212,-0.00000035,0.00000047,0.
 00000548,0.00000050,-0.00000037,-0.00000253,-0.00000178,0.00000249,-0.
 00001078,0.00000788,-0.00001034,0.00000369,-0.00000068,-0.00000270,0.0
 0006481,-0.00010764,-0.00042253,0.00002926,0.00006701,0.00001643,-0.00
 001499,-0.00008900,-0.00006558,0.00062484,0.00070734,0.00018423,-0.000
 80149,0.00032330,-0.00008056,-0.00015787,-0.00021704,-0.00041822,0.122
 51515,0.02205732,-0.05664586,-0.11203588,-0.01703785,0.05821177\\-0.00
 001363,0.00002614,0.00000308,-0.00001877,0.00023654,-0.00006239,-0.000
 12190,-0.00008369,0.00007874,0.00011333,0.00005703,-0.00025343,0.00008
 087,0.00001017,0.00000043,-0.00047299,-0.00016379,0.00003830,0.0002226
 7,0.00004579,0.00013180,-0.00018840,0.00019290,-0.00069069,-0.00004100
 ,-0.00007601,-0.00004887,0.00000598,0.00005226,0.00002091,-0.00001419,
 -0.00003217,0.00000115,-0.00003552,0.00006739,-0.00000967,-0.00014706,
 -0.00012660,0.00010914,0.00019842,0.00015842,-0.00011121,-0.00036626,0
 .00029179,-0.00025706,0.00002943,0.00003664,0.00004652,-0.00000091,-0.
 00006524,0.00002801,0.00004879,0.00000169,0.00001175,0.00086130,-0.001
 10872,-0.00000625,-0.00234041,0.00088981,0.00032567,-0.00101261,0.0018
 2551,-0.00040457,-0.00000731,-0.00000670,0.00001334,-0.00001657,0.0000
 1309,0.00000987,0.00000080,-0.00001131,0.00001430,0.00001627,-0.000000
 14,-0.00000339,-0.00003975,-0.00004684,0.00004961,-0.00005047,-0.00001
 086,0.00007783,-0.00088136,-0.00015700,-0.00043003,0.00058377,0.000834
 79,-0.00000257,0.00107856,-0.00035668,0.00001458,-0.00007452,0.0000684
 2,-0.00006541,-0.00003587,-0.00007302,0.00011390,0.00022407,-0.0002176
 2,0.00053079,0.00013331,-0.00001043,-0.00008591,0.00596007,-0.00094595
 ,-0.00292874,0.00011535,-0.00440989,-0.00135113,-0.00084609,0.00149985
 ,0.00125232,-0.00115936,-0.00111001,-0.00597242,0.00284604,0.00077095,
 0.00466986,0.00113152,-0.00104529,0.00092070,-0.00536620,-0.00182903,0
 .00087378,-0.00079588,0.00229170,-0.00015163,0.00147851,0.00518076,0.0
 0099690,-0.00126397,-0.00176462,0.00172407,-0.00001382,-0.00015096,0.0
 0001527,0.00005942,0.00001387,0.00002752,-0.00061517,-0.00041952,0.000
 68505,0.00003174,0.00020192,0.00006522,-0.00005810,0.00008222,0.000006
 01,0.00024076,-0.00106294,-0.00023871,-0.00021855,-0.00014547,0.001127
 87,0.00046299,0.00058894,-0.00040389,-0.00000658,0.00000142,0.00001055
 ,-0.00000151,-0.00000352,0.00000039,0.00000186,0.00000389,0.00000175,0
 .00000007,-0.00000420,0.,0.00000004,0.00000795,-0.00000259,-0.00001201
 ,0.00001168,-0.00000881,0.00001432,0.00000111,-0.00002307,-0.00001671,
 -0.00001833,-0.00001452,-0.00000332,0.00000114,-0.00000126,0.00001579,
 0.00000854,-0.00000075,0.00002302,-0.00000198,-0.00000825,0.00004830,-
 0.00002899,0.00001484,-0.00000639,-0.00000374,-0.00000633,-0.00000749,
 -0.00000904,-0.00000746,0.00008141,0.00012190,-0.00006965,0.00000241,-
 0.00001018,-0.00000935,0.00001366,0.00000474,0.00000980,-0.00001567,-0
 .00003240,0.00000557,-0.00001279,0.00000986,0.00002440,-0.00000508,0.0
 0001241,0.00000418,0.00015434,0.00022503,-0.00003055,0.00005368,0.0000
 1476,-0.00000819,-0.00000783,-0.00003115,-0.00004029,-0.00001360,0.000
 00757,-0.00002183,0.00011773,-0.00013034,0.00001271,0.00003607,-0.0002
 2782,-0.00017123,0.00001607,-0.00000277,-0.00002874,-0.00000247,-0.000
 00020,-0.00000141,0.00000227,-0.00000058,0.00000058,-0.00000279,-0.000
 00033,0.00000263,0.00000009,-0.00000200,-0.00000156,0.00001443,-0.0000
 0234,-0.00004171,0.00000160,0.00001498,-0.00000028,-0.00000796,0.00002
 016,-0.00000805,-0.00000300,0.00000040,-0.00000281,0.00000561,0.000002
 74,-0.00000603,-0.00000065,-0.00000120,0.00000097,-0.00000729,0.000001
 29,0.00000256,0.00000930,0.00000459,0.00001508,-0.00002183,-0.00002352
 ,-0.00003157,0.00000528,0.00000635,0.00000170,0.00001812,-0.00000215,-
 0.00001936,0.00000823,-0.00000132,0.00000294,-0.00003615,-0.00005042,-
 0.00001741,0.00000481,-0.00000037,0.00000248,0.00000154,-0.00000029,0.
 00000105,-0.00000934,0.00001222,0.00000008,-0.00002158,-0.00001500,-0.
 00001035,0.00001141,-0.00000960,0.00000706,0.00000035,-0.00000675,0.00
 001277,0.00000625,-0.00000085,-0.00000242,0.00001149,0.00002637,-0.000
 04297,-0.00000448,0.00000456,0.00000479,0.00000918,-0.00000825,0.00000
 217,0.00000056,0.00001187,-0.00000124,0.00000305,-0.00000288,0.0000028
 1,-0.00000907,0.00000784,0.00000392,-0.00017593,0.00006532,-0.00000143
 ,0.00001185,0.00001371,-0.00001266\\\@


 TERRY FORSTER, PORTLY ATLANTA BRAVES RELIEVER,
 ANNOUNCING THAT HE WAS GOING TO A FAT FARM:
 "A WAIST IS A TERRIBLE THING TO MIND."
 Job cpu time:      20 days 19 hours  6 minutes 13.0 seconds.
 File lengths (MBytes):  RWF=  82924 Int=      0 D2E=      0 Chk=    391 Scr=      4
 Normal termination of Gaussian 09 at Thu Dec 10 10:13:40 2020.
real 90072.98
user 1784618.80
sys 12154.50
Machine:
halstead-a213
halstead-a213
halstead-a213
halstead-a213
halstead-a213
halstead-a213
halstead-a213
halstead-a213
halstead-a213
halstead-a213
halstead-a213
halstead-a213
halstead-a213
halstead-a213
halstead-a213
halstead-a213
halstead-a213
halstead-a213
halstead-a213
halstead-a213
