 Entering Gaussian System, Link 0=/apps/cent7/gaussian/g16-A.03/g16-haswell/g16/g16
 Initial command:
 /apps/cent7/gaussian/g16-A.03/g16-haswell/g16/l1.exe "/scratch/brown/ypushkar/gaussian/Gau-199628.inp" -scrdir="/scratch/brown/ypushkar/gaussian/"
 Entering Link 1 = /apps/cent7/gaussian/g16-A.03/g16-haswell/g16/l1.exe PID=    199630.
  
 Copyright (c) 1988,1990,1992,1993,1995,1998,2003,2009,2016,
            Gaussian, Inc.  All Rights Reserved.
  
 This is part of the Gaussian(R) 16 program.  It is based on
 the Gaussian(R) 09 system (copyright 2009, Gaussian, Inc.),
 the Gaussian(R) 03 system (copyright 2003, Gaussian, Inc.),
 the Gaussian(R) 98 system (copyright 1998, Gaussian, Inc.),
 the Gaussian(R) 94 system (copyright 1995, Gaussian, Inc.),
 the Gaussian 92(TM) system (copyright 1992, Gaussian, Inc.),
 the Gaussian 90(TM) system (copyright 1990, Gaussian, Inc.),
 the Gaussian 88(TM) system (copyright 1988, Gaussian, Inc.),
 the Gaussian 86(TM) system (copyright 1986, Carnegie Mellon
 University), and the Gaussian 82(TM) system (copyright 1983,
 Carnegie Mellon University). Gaussian is a federally registered
 trademark of Gaussian, Inc.
  
 This software contains proprietary and confidential information,
 including trade secrets, belonging to Gaussian, Inc.
  
 This software is provided under written license and may be
 used, copied, transmitted, or stored only in accord with that
 written license.
  
 The following legend is applicable only to US Government
 contracts under FAR:
  
                    RESTRICTED RIGHTS LEGEND
  
 Use, reproduction and disclosure by the US Government is
 subject to restrictions as set forth in subparagraphs (a)
 and (c) of the Commercial Computer Software - Restricted
 Rights clause in FAR 52.227-19.
  
 Gaussian, Inc.
 340 Quinnipiac St., Bldg. 40, Wallingford CT 06492
  
  
 ---------------------------------------------------------------
 Warning -- This program may not be used in any manner that
 competes with the business of Gaussian, Inc. or will provide
 assistance to any competitor of Gaussian, Inc.  The licensee
 of this program is prohibited from giving any competitor of
 Gaussian, Inc. access to this program.  By using this program,
 the user acknowledges that Gaussian, Inc. is engaged in the
 business of creating and licensing software in the field of
 computational chemistry and represents and warrants to the
 licensee that it is not a competitor of Gaussian, Inc. and that
 it will not use this program in any manner prohibited above.
 ---------------------------------------------------------------
  

 Cite this work as:
 Gaussian 16, Revision A.03,
 M. J. Frisch, G. W. Trucks, H. B. Schlegel, G. E. Scuseria, 
 M. A. Robb, J. R. Cheeseman, G. Scalmani, V. Barone, 
 G. A. Petersson, H. Nakatsuji, X. Li, M. Caricato, A. V. Marenich, 
 J. Bloino, B. G. Janesko, R. Gomperts, B. Mennucci, H. P. Hratchian, 
 J. V. Ortiz, A. F. Izmaylov, J. L. Sonnenberg, D. Williams-Young, 
 F. Ding, F. Lipparini, F. Egidi, J. Goings, B. Peng, A. Petrone, 
 T. Henderson, D. Ranasinghe, V. G. Zakrzewski, J. Gao, N. Rega, 
 G. Zheng, W. Liang, M. Hada, M. Ehara, K. Toyota, R. Fukuda, 
 J. Hasegawa, M. Ishida, T. Nakajima, Y. Honda, O. Kitao, H. Nakai, 
 T. Vreven, K. Throssell, J. A. Montgomery, Jr., J. E. Peralta, 
 F. Ogliaro, M. J. Bearpark, J. J. Heyd, E. N. Brothers, K. N. Kudin, 
 V. N. Staroverov, T. A. Keith, R. Kobayashi, J. Normand, 
 K. Raghavachari, A. P. Rendell, J. C. Burant, S. S. Iyengar, 
 J. Tomasi, M. Cossi, J. M. Millam, M. Klene, C. Adamo, R. Cammi, 
 J. W. Ochterski, R. L. Martin, K. Morokuma, O. Farkas, 
 J. B. Foresman, and D. J. Fox, Gaussian, Inc., Wallingford CT, 2016.
 
 ******************************************
 Gaussian 16:  ES64L-G16RevA.03 25-Dec-2016
                 3-Feb-2019 
 ******************************************
 %NProcS=24
 Will use up to   24 processors via shared memory.
 %chk=OEC_S2_1d2prime_deprot_freq_4_18O.chk
 %mem=50GB
 ---------------------
 # freq def2tzvp ubp86
 ---------------------
 1/10=4,30=1,38=1/1,3;
 2/12=2,17=6,18=5,40=1/2;
 3/5=44,7=101,11=2,25=1,30=1,71=2,74=404,116=2,140=1/1,2,3;
 4//1;
 5/5=2,38=5,98=1/2;
 8/6=4,10=90,11=11/1;
 11/6=1,8=1,9=11,15=111,16=1/1,2,10;
 10/6=1/2;
 6/7=2,8=2,9=2,10=2,28=1/1;
 7/8=1,10=1,25=1/1,2,3,16;
 1/10=4,30=1/3;
 99//99;
 ------
 NoName
 ------
 Symbolic Z-matrix:
 Charge = -1 Multiplicity = 2
 Mn                   -1.32278  -2.91634  -1.23729 
 Mn                   -0.52062  -0.29333  -1.44754 
 Mn                   -1.03858   2.15952  -0.23899 
 Mn                    0.20997   0.64805   1.66307 
 Ca                   -3.00173  -0.27491   0.8005 
 O                    -1.01068  -1.39837  -0.07689 
 O                    -1.21851  -1.54945  -2.48456 
 O                    -1.92981   0.85198  -1.11893 
 O                    -1.39589   1.45523   1.4215 
 O                     0.4548    0.99996  -0.19138 
 H                    -4.85877  -3.93132  -3.65394 
 C                    -5.51237  -4.08024  -2.78185 
 H                    -6.50105  -4.39806  -3.15008 
 C                    -5.62968  -2.80043  -1.95609 
 C                    -4.32481  -2.24438  -1.3694 
 O                    -4.36     -1.10554  -0.85963 
 O                    -3.31137  -3.03372  -1.43557 
 C                    -0.118     0.03792   6.33349 
 C                    -1.44237  -0.02668   5.57287 
 C                    -1.33426  -0.10821   4.04763 
 O                    -2.34652  -0.45456   3.39159 
 O                    -0.18971   0.19782   3.54517 
 H                     5.51738  -3.9492    2.76514 
 C                     4.98049  -4.21995   1.84522 
 C                     5.57849  -3.37136   0.72532 
 C                     3.45548  -3.98701   2.01467 
 C                     2.99811  -2.55477   1.97753 
 N                     3.81222  -1.46175   2.25587 
 C                     1.7522   -2.02612   1.71713 
 C                     3.06817  -0.33351   2.13421 
 N                     1.81546  -0.64876   1.8226 
 N                     5.32313  -3.79515  -0.54443 
 C                     5.36921  -2.87786  -1.6909 
 H                     6.21848  -2.20199  -1.5267 
 C                     4.06234  -2.07781  -1.82684 
 C                     2.84518  -2.96624  -2.11584 
 C                     1.49254  -2.39076  -1.69532 
 O                     1.33644  -1.13709  -1.74239 
 O                     0.63469  -3.26382  -1.34965 
 C                     4.81634   5.24725  -2.23071 
 C                     4.233     3.95565  -1.74848 
 N                     5.0241    2.8414   -1.52632 
 C                     2.91173   3.65649  -1.46448 
 C                     4.18527   1.89518  -1.11953 
 N                     2.89792   2.33647  -1.0648 
 H                     1.425     6.98397   2.1064 
 C                     0.83672   6.10997   1.78618 
 H                    -0.11103   6.11251   2.34455 
 C                     1.61734   4.81768   2.02964 
 C                     0.91671   3.54102   1.56358 
 O                     0.06576   3.66338   0.62214 
 O                     1.26501   2.45731   2.13123 
 C                    -3.75572   3.08201   0.21533 
 O                    -4.13129   1.98064   0.67826 
 O                    -2.57757   3.36212  -0.22966 
 C                    -0.5876    4.19429  -4.54602 
 C                     0.22698   2.92326  -4.29465 
 C                    -0.10969   2.19888  -2.99382 
 O                    -0.45729   2.93083  -2.00278 
 O                     0.023     0.93936  -2.99346 
 O                     6.20051  -2.32832   0.97472 
 H                    -5.0885   -4.9      -2.18536 
 H                     4.72179  -4.6097   -0.63758 
 H                     2.05877   1.79887  -0.77845 
 H                    -6.07447  -1.98254  -2.54466 
 H                    -6.30505  -2.9494   -1.09647 
 H                     4.03821   6.01758  -2.33165 
 H                     5.58388   5.62324  -1.53478 
 H                     1.99619   4.23784  -1.50565 
 H                     4.46157   0.87747  -0.85763 
 H                     3.44852   0.67446   2.26529 
 H                     0.82939  -2.5297    1.43343 
 H                     4.83693  -1.49929   2.2526 
 H                     5.57362  -3.47224  -2.5953 
 C                    -4.75589   4.22663   0.11308 
 H                    -4.24896   5.19909   0.09798 
 H                    -5.31481   4.11096  -0.82864 
 H                    -5.4753    4.17455   0.94052 
 H                    -1.65954   3.9654   -4.63811 
 H                    -0.47216   4.90653  -3.71832 
 H                     0.11354   2.19704  -5.11207 
 H                     1.3031    3.16535  -4.23646 
 H                     0.48526  -0.86447   6.15684 
 H                    -2.05701  -0.8799    5.89974 
 H                     0.48012   0.9004    6.01065 
 H                    -2.04881   0.87249   5.78176 
 H                     3.1538   -4.45361   2.96872 
 H                     5.15411  -5.29352   1.66794 
 H                     2.89814  -4.52836   1.23436 
 H                     0.58976   6.22513   0.7227 
 H                     1.86787   4.68627   3.09299 
 H                     2.57912   4.84415   1.48695 
 H                     3.89971  -1.52309  -0.88997 
 H                     2.92276  -3.94726  -1.62312 
 H                     2.76457  -3.17766  -3.19617 
 H                     4.17967  -1.31833  -2.614 
 O(Iso=18)            -3.22345  -2.58141   1.69715 
 H                    -2.86285  -2.42645   2.58877 
 O(Iso=18)            -1.39257  -4.39539  -2.3657 
 H                    -2.55383  -3.18968   1.22472 
 O(Iso=18)            -1.42122  -3.97393   0.36581 
 H                    -4.88856   1.0837    2.18615 
 O(Iso=18)            -4.90039   0.16906   2.54585 
 H                    -4.19437   0.13143   3.22767 
 H                    -2.31491  -4.40138  -2.68617 
 H                    -1.65966  -4.85872   0.03105 
 H                    -0.29633   0.12211   7.41695 
 H                     5.30456   5.12325  -3.21121 
 H                    -0.26151   4.68297  -5.4771 
 

 GradGradGradGradGradGradGradGradGradGradGradGradGradGradGradGradGradGrad
 Berny optimization.
 Initialization pass.
 Trust Radius=3.00D-01 FncErr=1.00D-07 GrdErr=1.00D-07 EigMax=2.50D+02 EigMin=1.00D-04
 Number of steps in this run=      2 maximum allowed number of steps=      2.
 GradGradGradGradGradGradGradGradGradGradGradGradGradGradGradGradGradGrad

 Stoichiometry    C28H49CaMn4N5O22(1-,2)
 Framework group  C1[X(C28H49CaMn4N5O22)]
 Deg. of freedom   321
 Full point group                 C1      NOp   1
 Largest Abelian subgroup         C1      NOp   1
 Largest concise Abelian subgroup C1      NOp   1
                         Standard orientation:                         
 ---------------------------------------------------------------------
 Center     Atomic      Atomic             Coordinates (Angstroms)
 Number     Number       Type             X           Y           Z
 ---------------------------------------------------------------------
      1         25           0       -1.322784   -2.916340   -1.237287
      2         25           0       -0.520621   -0.293332   -1.447542
      3         25           0       -1.038575    2.159521   -0.238988
      4         25           0        0.209972    0.648047    1.663067
      5         20           0       -3.001732   -0.274908    0.800495
      6          8           0       -1.010680   -1.398367   -0.076894
      7          8           0       -1.218513   -1.549446   -2.484560
      8          8           0       -1.929806    0.851976   -1.118930
      9          8           0       -1.395892    1.455226    1.421502
     10          8           0        0.454796    0.999963   -0.191375
     11          1           0       -4.858765   -3.931321   -3.653935
     12          6           0       -5.512368   -4.080243   -2.781847
     13          1           0       -6.501051   -4.398057   -3.150077
     14          6           0       -5.629683   -2.800430   -1.956085
     15          6           0       -4.324814   -2.244381   -1.369398
     16          8           0       -4.360004   -1.105537   -0.859630
     17          8           0       -3.311372   -3.033716   -1.435568
     18          6           0       -0.117998    0.037920    6.333487
     19          6           0       -1.442365   -0.026675    5.572873
     20          6           0       -1.334259   -0.108208    4.047633
     21          8           0       -2.346523   -0.454557    3.391586
     22          8           0       -0.189706    0.197817    3.545166
     23          1           0        5.517377   -3.949196    2.765143
     24          6           0        4.980486   -4.219950    1.845217
     25          6           0        5.578494   -3.371357    0.725320
     26          6           0        3.455480   -3.987008    2.014672
     27          6           0        2.998106   -2.554770    1.977527
     28          7           0        3.812224   -1.461751    2.255868
     29          6           0        1.752199   -2.026120    1.717129
     30          6           0        3.068167   -0.333507    2.134212
     31          7           0        1.815456   -0.648757    1.822597
     32          7           0        5.323131   -3.795149   -0.544431
     33          6           0        5.369205   -2.877858   -1.690901
     34          1           0        6.218479   -2.201992   -1.526704
     35          6           0        4.062343   -2.077808   -1.826840
     36          6           0        2.845182   -2.966239   -2.115838
     37          6           0        1.492536   -2.390759   -1.695323
     38          8           0        1.336444   -1.137087   -1.742389
     39          8           0        0.634688   -3.263820   -1.349654
     40          6           0        4.816339    5.247252   -2.230709
     41          6           0        4.232998    3.955649   -1.748479
     42          7           0        5.024103    2.841402   -1.526322
     43          6           0        2.911730    3.656494   -1.464478
     44          6           0        4.185270    1.895182   -1.119532
     45          7           0        2.897916    2.336466   -1.064804
     46          1           0        1.424996    6.983965    2.106398
     47          6           0        0.836716    6.109974    1.786180
     48          1           0       -0.111028    6.112510    2.344551
     49          6           0        1.617340    4.817680    2.029639
     50          6           0        0.916710    3.541021    1.563576
     51          8           0        0.065763    3.663377    0.622140
     52          8           0        1.265008    2.457306    2.131231
     53          6           0       -3.755724    3.082011    0.215330
     54          8           0       -4.131293    1.980638    0.678258
     55          8           0       -2.577568    3.362118   -0.229661
     56          6           0       -0.587595    4.194286   -4.546022
     57          6           0        0.226979    2.923263   -4.294648
     58          6           0       -0.109693    2.198882   -2.993818
     59          8           0       -0.457293    2.930832   -2.002777
     60          8           0        0.022999    0.939359   -2.993464
     61          8           0        6.200510   -2.328324    0.974724
     62          1           0       -5.088501   -4.900000   -2.185356
     63          1           0        4.721785   -4.609695   -0.637578
     64          1           0        2.058773    1.798866   -0.778450
     65          1           0       -6.074472   -1.982535   -2.544662
     66          1           0       -6.305050   -2.949395   -1.096469
     67          1           0        4.038210    6.017577   -2.331651
     68          1           0        5.583884    5.623235   -1.534776
     69          1           0        1.996191    4.237843   -1.505645
     70          1           0        4.461567    0.877468   -0.857629
     71          1           0        3.448516    0.674455    2.265288
     72          1           0        0.829385   -2.529696    1.433429
     73          1           0        4.836928   -1.499287    2.252597
     74          1           0        5.573618   -3.472238   -2.595297
     75          6           0       -4.755892    4.226635    0.113083
     76          1           0       -4.248960    5.199088    0.097977
     77          1           0       -5.314810    4.110960   -0.828643
     78          1           0       -5.475301    4.174547    0.940522
     79          1           0       -1.659540    3.965403   -4.638110
     80          1           0       -0.472158    4.906529   -3.718315
     81          1           0        0.113535    2.197044   -5.112070
     82          1           0        1.303098    3.165354   -4.236460
     83          1           0        0.485261   -0.864471    6.156839
     84          1           0       -2.057008   -0.879903    5.899738
     85          1           0        0.480115    0.900403    6.010655
     86          1           0       -2.048805    0.872487    5.781762
     87          1           0        3.153804   -4.453608    2.968715
     88          1           0        5.154107   -5.293517    1.667939
     89          1           0        2.898142   -4.528355    1.234361
     90          1           0        0.589758    6.225135    0.722697
     91          1           0        1.867870    4.686269    3.092985
     92          1           0        2.579122    4.844145    1.486946
     93          1           0        3.899705   -1.523088   -0.889968
     94          1           0        2.922757   -3.947257   -1.623120
     95          1           0        2.764567   -3.177660   -3.196173
     96          1           0        4.179672   -1.318331   -2.613999
     97          8           0       -3.223450   -2.581408    1.697146
     98          1           0       -2.862845   -2.426446    2.588765
     99          8           0       -1.392569   -4.395385   -2.365699
    100          1           0       -2.553826   -3.189678    1.224718
    101          8           0       -1.421223   -3.973928    0.365808
    102          1           0       -4.888555    1.083701    2.186153
    103          8           0       -4.900393    0.169055    2.545847
    104          1           0       -4.194371    0.131428    3.227670
    105          1           0       -2.314913   -4.401384   -2.686171
    106          1           0       -1.659655   -4.858717    0.031048
    107          1           0       -0.296331    0.122111    7.416953
    108          1           0        5.304555    5.123250   -3.211212
    109          1           0       -0.261509    4.682968   -5.477102
 ---------------------------------------------------------------------
 Rotational constants (GHZ):           0.0410631           0.0372528           0.0307299
 Standard basis: def2TZVP (5D, 7F)
 There are  2521 symmetry adapted cartesian basis functions of A   symmetry.
 There are  2215 symmetry adapted basis functions of A   symmetry.
  2215 basis functions,  3682 primitive gaussians,  2521 cartesian basis functions
   275 alpha electrons      274 beta electrons
       nuclear repulsion energy     15990.8070559391 Hartrees.
 NAtoms=  109 NActive=  109 NUniq=  109 SFac= 1.00D+00 NAtFMM=   60 NAOKFM=T Big=T
 Integral buffers will be    131072 words long.
 Raffenetti 2 integral format.
 Two-electron integral symmetry is turned on.
 One-electron integrals computed using PRISM.
   1 Symmetry operations used in ECPInt.
 ECPInt:  NShTT=  383250 NPrTT= 1236453 LenC2=  262344 LenP2D=  523634.
 LDataN:  DoStor=T MaxTD1= 6 Len=  172
 NBasis=  2215 RedAO= T EigKep=  2.66D-05  NBF=  2215
 NBsUse=  2215 1.00D-06 EigRej= -1.00D+00 NBFU=  2215
 ExpMin= 2.68D-02 ExpMax= 2.77D+05 ExpMxC= 5.89D+03 IAcc=3 IRadAn=         5 AccDes= 0.00D+00
 Harris functional with IExCor=  404 and IRadAn=       5 diagonalized for initial guess.
 HarFok:  IExCor=  404 AccDes= 0.00D+00 IRadAn=         5 IDoV= 1 UseB2=F ITyADJ=14
 ICtDFT=  3500011 ScaDFX=  1.000000  1.000000  1.000000  1.000000
 FoFCou: FMM=F IPFlag=           0 FMFlag=      100000 FMFlg1=        2001
         NFxFlg=           0 DoJE=T BraDBF=F KetDBF=T FulRan=T
         wScrn=  0.000000 ICntrl=       500 IOpCl=  0 I1Cent=   200000004 NGrid=           0
         NMat0=    1 NMatS0=      1 NMatT0=    0 NMatD0=    1 NMtDS0=    0 NMtDT0=    0
 Petite list used in FoFCou.
 Initial guess <Sx>= 0.0000 <Sy>= 0.0000 <Sz>= 0.5000 <S**2>= 0.7500 S= 0.5000
 Requested convergence on RMS density matrix=1.00D-08 within 128 cycles.
 Requested convergence on MAX density matrix=1.00D-06.
 Requested convergence on             energy=1.00D-06.
 No special actions if energy rises.
 EnCoef did     4 forward-backward iterations
 EnCoef did   100 forward-backward iterations
 EnCoef did   100 forward-backward iterations
 EnCoef did   100 forward-backward iterations
 EnCoef did   100 forward-backward iterations
 EnCoef did   100 forward-backward iterations
 EnCoef did   100 forward-backward iterations
 EnCoef did    12 forward-backward iterations
 EnCoef did     9 forward-backward iterations
 EnCoef did    16 forward-backward iterations
 EnCoef did   100 forward-backward iterations
 EnCoef did   100 forward-backward iterations
 EnCoef did   100 forward-backward iterations
 EnCoef did    34 forward-backward iterations
 EnCoef did   100 forward-backward iterations
 EnCoef did    15 forward-backward iterations
 EnCoef did    10 forward-backward iterations
 EnCoef did   100 forward-backward iterations
 Restarting incremental Fock formation.
 EnCoef did   100 forward-backward iterations
 EnCoef did    35 forward-backward iterations
 EnCoef did   100 forward-backward iterations
 EnCoef did   100 forward-backward iterations
 EnCoef did   100 forward-backward iterations
 EnCoef did   100 forward-backward iterations
 EnCoef did   100 forward-backward iterations
 EnCoef did   100 forward-backward iterations
 EnCoef did   100 forward-backward iterations
 EnCoef did   100 forward-backward iterations
 EnCoef did   100 forward-backward iterations
 EnCoef did   100 forward-backward iterations
 EnCoef did   100 forward-backward iterations
 EnCoef did    23 forward-backward iterations
 EnCoef did   100 forward-backward iterations
 EnCoef did   100 forward-backward iterations
 EnCoef did   100 forward-backward iterations
 EnCoef did    70 forward-backward iterations
 EnCoef did   100 forward-backward iterations
 EnCoef did   100 forward-backward iterations
 Restarting incremental Fock formation.
 EnCoef did   100 forward-backward iterations
 EnCoef did   100 forward-backward iterations
 EnCoef did   100 forward-backward iterations
 EnCoef did   100 forward-backward iterations
 EnCoef did   100 forward-backward iterations
 EnCoef did   100 forward-backward iterations
 EnCoef did    32 forward-backward iterations
 EnCoef did   100 forward-backward iterations
 EnCoef did   100 forward-backward iterations
 EnCoef did   100 forward-backward iterations
 EnCoef did   100 forward-backward iterations
 EnCoef did   100 forward-backward iterations
 EnCoef did   100 forward-backward iterations
 EnCoef did   100 forward-backward iterations
 EnCoef did   100 forward-backward iterations
 EnCoef did   100 forward-backward iterations
 EnCoef did   100 forward-backward iterations
 EnCoef did   100 forward-backward iterations
 EnCoef did   100 forward-backward iterations
 EnCoef did   100 forward-backward iterations
 Restarting incremental Fock formation.
 EnCoef did   100 forward-backward iterations
 EnCoef did     3 forward-backward iterations
 SCF Done:  E(UB-P86) =  -8309.94931352     A.U. after   78 cycles
            NFock= 78  Conv=0.39D-08     -V/T= 2.0028
 <Sx>= 0.0000 <Sy>= 0.0000 <Sz>= 0.5000 <S**2>= 6.5754 S= 2.1126
 <L.S>= 0.000000000000E+00
 Annihilation of the first spin contaminant:
 S**2 before annihilation     6.5754,   after    20.6249
 DoSCS=F DFT=T ScalE2(SS,OS)=  1.000000  1.000000
 Range of M.O.s used for correlation:     1  2215
 NBasis=  2215 NAE=   275 NBE=   274 NFC=     0 NFV=     0
 NROrb=   2215 NOA=   275 NOB=   274 NVA=  1940 NVB=  1941

 **** Warning!!: The largest alpha MO coefficient is  0.29980913D+02


 **** Warning!!: The smallest alpha delta epsilon is  0.49575926D-01


 **** Warning!!: The largest beta MO coefficient is  0.29984991D+02


 **** Warning!!: The smallest beta delta epsilon is  0.61230441D-01

 PrsmSu:  requested number of processors reduced to:   6 ShMem   1 Linda.
   1 Symmetry operations used in ECPInt.
 ECPInt:  NShTT=  383250 NPrTT= 1236453 LenC2=  262344 LenP2D=  523634.
 LDataN:  DoStor=T MaxTD1= 7 Len=  274
 Number of processors reduced to   2 by ecpmxn.
 Symmetrizing basis deriv contribution to polar:
 IMax=3 JMax=2 DiffMx= 0.00D+00
 G2DrvN: will do    11 centers at a time, making   10 passes.
 Calling FoFCou, ICntrl=  3507 FMM=T I1Cent=   0 AccDes= 0.00D+00.
 Calling FoFCou, ICntrl=  3507 FMM=T I1Cent=   0 AccDes= 0.00D+00.
 Calling FoFCou, ICntrl=  3507 FMM=T I1Cent=   0 AccDes= 0.00D+00.
 Calling FoFCou, ICntrl=  3507 FMM=T I1Cent=   0 AccDes= 0.00D+00.
 Calling FoFCou, ICntrl=  3507 FMM=T I1Cent=   0 AccDes= 0.00D+00.
 Calling FoFCou, ICntrl=  3507 FMM=T I1Cent=   0 AccDes= 0.00D+00.
 Calling FoFCou, ICntrl=  3507 FMM=T I1Cent=   0 AccDes= 0.00D+00.
 Calling FoFCou, ICntrl=  3507 FMM=T I1Cent=   0 AccDes= 0.00D+00.
 Calling FoFCou, ICntrl=  3507 FMM=T I1Cent=   0 AccDes= 0.00D+00.
 Calling FoFCou, ICntrl=  3507 FMM=T I1Cent=   0 AccDes= 0.00D+00.
 End of G2Drv F.D. properties file   721 does not exist.
 End of G2Drv F.D. properties file   722 does not exist.
 End of G2Drv F.D. properties file   788 does not exist.
          IDoAtm=11111111111111111111111111111111111111111111111111
          IDoAtm=11111111111111111111111111111111111111111111111111
          IDoAtm=111111111
          Differentiating once with respect to electric field.
                with respect to dipole field.
          Differentiating once with respect to nuclear coordinates.
 CalDSu exits because no D1Ps are significant.
          There are   330 degrees of freedom in the 1st order CPHF.  IDoFFX=6 NUNeed=     3.
    330 vectors produced by pass  0 Test12= 1.07D-12 1.00D-09 XBig12= 3.37D+03 9.33D+00.
 AX will form    21 AO Fock derivatives at one time.
    330 vectors produced by pass  1 Test12= 1.07D-12 1.00D-09 XBig12= 5.64D+03 1.38D+01.
    327 vectors produced by pass  2 Test12= 1.07D-12 1.00D-09 XBig12= 8.16D+01 6.74D-01.
    327 vectors produced by pass  3 Test12= 1.07D-12 1.00D-09 XBig12= 1.39D+00 9.94D-02.
    327 vectors produced by pass  4 Test12= 1.07D-12 1.00D-09 XBig12= 7.91D-03 4.16D-03.
    316 vectors produced by pass  5 Test12= 1.07D-12 1.00D-09 XBig12= 2.52D-05 1.87D-04.
    194 vectors produced by pass  6 Test12= 1.07D-12 1.00D-09 XBig12= 7.80D-08 9.62D-06.
     51 vectors produced by pass  7 Test12= 1.07D-12 1.00D-09 XBig12= 2.67D-10 5.33D-07.
     23 vectors produced by pass  8 Test12= 1.07D-12 1.00D-09 XBig12= 1.10D-12 3.84D-08.
     13 vectors produced by pass  9 Test12= 1.07D-12 1.00D-09 XBig12= 9.49D-15 4.25D-09.
     10 vectors produced by pass 10 Test12= 1.07D-12 1.00D-09 XBig12= 2.77D-14 3.87D-09.
     10 vectors produced by pass 11 Test12= 1.07D-12 1.00D-09 XBig12= 2.27D-14 2.37D-09.
     10 vectors produced by pass 12 Test12= 1.07D-12 1.00D-09 XBig12= 3.37D-14 3.41D-09.
     10 vectors produced by pass 13 Test12= 1.07D-12 1.00D-09 XBig12= 2.49D-14 3.65D-09.
      9 vectors produced by pass 14 Test12= 1.07D-12 1.00D-09 XBig12= 1.52D-14 2.22D-09.
      6 vectors produced by pass 15 Test12= 1.07D-12 1.00D-09 XBig12= 7.25D-15 1.57D-09.
      4 vectors produced by pass 16 Test12= 1.07D-12 1.00D-09 XBig12= 7.59D-15 1.76D-09.
      4 vectors produced by pass 17 Test12= 1.07D-12 1.00D-09 XBig12= 1.64D-14 2.17D-09.
      4 vectors produced by pass 18 Test12= 1.07D-12 1.00D-09 XBig12= 1.61D-14 2.37D-09.
      4 vectors produced by pass 19 Test12= 1.07D-12 1.00D-09 XBig12= 2.19D-14 2.46D-09.
      4 vectors produced by pass 20 Test12= 1.07D-12 1.00D-09 XBig12= 1.50D-14 2.22D-09.
      4 vectors produced by pass 21 Test12= 1.07D-12 1.00D-09 XBig12= 1.82D-14 2.73D-09.
      4 vectors produced by pass 22 Test12= 1.07D-12 1.00D-09 XBig12= 1.39D-14 1.97D-09.
      4 vectors produced by pass 23 Test12= 1.07D-12 1.00D-09 XBig12= 1.47D-14 2.07D-09.
      4 vectors produced by pass 24 Test12= 1.07D-12 1.00D-09 XBig12= 8.66D-15 1.50D-09.
      4 vectors produced by pass 25 Test12= 1.07D-12 1.00D-09 XBig12= 1.64D-14 2.08D-09.
      4 vectors produced by pass 26 Test12= 1.07D-12 1.00D-09 XBig12= 2.01D-14 2.85D-09.
      3 vectors produced by pass 27 Test12= 1.07D-12 1.00D-09 XBig12= 1.39D-14 2.04D-09.
 InvSVY:  IOpt=1 It=  1 EMax= 2.84D-14
 Solved reduced A of dimension  2340 with   330 vectors.
 Isotropic polarizability for W=    0.000000      669.37 Bohr**3.
 End of Minotr F.D. properties file   721 does not exist.
 End of Minotr F.D. properties file   722 does not exist.
 End of Minotr F.D. properties file   788 does not exist.
 Hyperfine terms turned off by default for NAtoms > 100.

 **********************************************************************

            Population analysis using the SCF density.

 **********************************************************************

 Orbital symmetries:
 Alpha Orbitals:
       Occupied  (A) (A) (A) (A) (A) (A) (A) (A) (A) (A) (A) (A)
                 (A) (A) (A) (A) (A) (A) (A) (A) (A) (A) (A) (A)
                 (A) (A) (A) (A) (A) (A) (A) (A) (A) (A) (A) (A)
                 (A) (A) (A) (A) (A) (A) (A) (A) (A) (A) (A) (A)
                 (A) (A) (A) (A) (A) (A) (A) (A) (A) (A) (A) (A)
                 (A) (A) (A) (A) (A) (A) (A) (A) (A) (A) (A) (A)
                 (A) (A) (A) (A) (A) (A) (A) (A) (A) (A) (A) (A)
                 (A) (A) (A) (A) (A) (A) (A) (A) (A) (A) (A) (A)
                 (A) (A) (A) (A) (A) (A) (A) (A) (A) (A) (A) (A)
                 (A) (A) (A) (A) (A) (A) (A) (A) (A) (A) (A) (A)
                 (A) (A) (A) (A) (A) (A) (A) (A) (A) (A) (A) (A)
                 (A) (A) (A) (A) (A) (A) (A) (A) (A) (A) (A) (A)
                 (A) (A) (A) (A) (A) (A) (A) (A) (A) (A) (A) (A)
                 (A) (A) (A) (A) (A) (A) (A) (A) (A) (A) (A) (A)
                 (A) (A) (A) (A) (A) (A) (A) (A) (A) (A) (A) (A)
                 (A) (A) (A) (A) (A) (A) (A) (A) (A) (A) (A) (A)
                 (A) (A) (A) (A) (A) (A) (A) (A) (A) (A) (A) (A)
                 (A) (A) (A) (A) (A) (A) (A) (A) (A) (A) (A) (A)
                 (A) (A) (A) (A) (A) (A) (A) (A) (A) (A) (A) (A)
                 (A) (A) (A) (A) (A) (A) (A) (A) (A) (A) (A) (A)
                 (A) (A) (A) (A) (A) (A) (A) (A) (A) (A) (A) (A)
                 (A) (A) (A) (A) (A) (A) (A) (A) (A) (A) (A) (A)
                 (A) (A) (A) (A) (A) (A) (A) (A) (A) (A) (A)
       Virtual   (A) (A) (A) (A) (A) (A) (A) (A) (A) (A) (A) (A)
                 (A) (A) (A) (A) (A) (A) (A) (A) (A) (A) (A) (A)
                 (A) (A) (A) (A) (A) (A) (A) (A) (A) (A) (A) (A)
                 (A) (A) (A) (A) (A) (A) (A) (A) (A) (A) (A) (A)
                 (A) (A) (A) (A) (A) (A) (A) (A) (A) (A) (A) (A)
                 (A) (A) (A) (A) (A) (A) (A) (A) (A) (A) (A) (A)
                 (A) (A) (A) (A) (A) (A) (A) (A) (A) (A) (A) (A)
                 (A) (A) (A) (A) (A) (A) (A) (A) (A) (A) (A) (A)
                 (A) (A) (A) (A) (A) (A) (A) (A) (A) (A) (A) (A)
                 (A) (A) (A) (A) (A) (A) (A) (A) (A) (A) (A) (A)
                 (A) (A) (A) (A) (A) (A) (A) (A) (A) (A) (A) (A)
                 (A) (A) (A) (A) (A) (A) (A) (A) (A) (A) (A) (A)
                 (A) (A) (A) (A) (A) (A) (A) (A) (A) (A) (A) (A)
                 (A) (A) (A) (A) (A) (A) (A) (A) (A) (A) (A) (A)
                 (A) (A) (A) (A) (A) (A) (A) (A) (A) (A) (A) (A)
                 (A) (A) (A) (A) (A) (A) (A) (A) (A) (A) (A) (A)
                 (A) (A) (A) (A) (A) (A) (A) (A) (A) (A) (A) (A)
                 (A) (A) (A) (A) (A) (A) (A) (A) (A) (A) (A) (A)
                 (A) (A) (A) (A) (A) (A) (A) (A) (A) (A) (A) (A)
                 (A) (A) (A) (A) (A) (A) (A) (A) (A) (A) (A) (A)
                 (A) (A) (A) (A) (A) (A) (A) (A) (A) (A) (A) (A)
                 (A) (A) (A) (A) (A) (A) (A) (A) (A) (A) (A) (A)
                 (A) (A) (A) (A) (A) (A) (A) (A) (A) (A) (A) (A)
                 (A) (A) (A) (A) (A) (A) (A) (A) (A) (A) (A) (A)
                 (A) (A) (A) (A) (A) (A) (A) (A) (A) (A) (A) (A)
                 (A) (A) (A) (A) (A) (A) (A) (A) (A) (A) (A) (A)
                 (A) (A) (A) (A) (A) (A) (A) (A) (A) (A) (A) (A)
                 (A) (A) (A) (A) (A) (A) (A) (A) (A) (A) (A) (A)
                 (A) (A) (A) (A) (A) (A) (A) (A) (A) (A) (A) (A)
                 (A) (A) (A) (A) (A) (A) (A) (A) (A) (A) (A) (A)
                 (A) (A) (A) (A) (A) (A) (A) (A) (A) (A) (A) (A)
                 (A) (A) (A) (A) (A) (A) (A) (A) (A) (A) (A) (A)
                 (A) (A) (A) (A) (A) (A) (A) (A) (A) (A) (A) (A)
                 (A) (A) (A) (A) (A) (A) (A) (A) (A) (A) (A) (A)
                 (A) (A) (A) (A) (A) (A) (A) (A) (A) (A) (A) (A)
                 (A) (A) (A) (A) (A) (A) (A) (A) (A) (A) (A) (A)
                 (A) (A) (A) (A) (A) (A) (A) (A) (A) (A) (A) (A)
                 (A) (A) (A) (A) (A) (A) (A) (A) (A) (A) (A) (A)
                 (A) (A) (A) (A) (A) (A) (A) (A) (A) (A) (A) (A)
                 (A) (A) (A) (A) (A) (A) (A) (A) (A) (A) (A) (A)
                 (A) (A) (A) (A) (A) (A) (A) (A) (A) (A) (A) (A)
                 (A) (A) (A) (A) (A) (A) (A) (A) (A) (A) (A) (A)
                 (A) (A) (A) (A) (A) (A) (A) (A) (A) (A) (A) (A)
                 (A) (A) (A) (A) (A) (A) (A) (A) (A) (A) (A) (A)
                 (A) (A) (A) (A) (A) (A) (A) (A) (A) (A) (A) (A)
                 (A) (A) (A) (A) (A) (A) (A) (A) (A) (A) (A) (A)
                 (A) (A) (A) (A) (A) (A) (A) (A) (A) (A) (A) (A)
                 (A) (A) (A) (A) (A) (A) (A) (A) (A) (A) (A) (A)
                 (A) (A) (A) (A) (A) (A) (A) (A) (A) (A) (A) (A)
                 (A) (A) (A) (A) (A) (A) (A) (A) (A) (A) (A) (A)
                 (A) (A) (A) (A) (A) (A) (A) (A) (A) (A) (A) (A)
                 (A) (A) (A) (A) (A) (A) (A) (A) (A) (A) (A) (A)
                 (A) (A) (A) (A) (A) (A) (A) (A) (A) (A) (A) (A)
                 (A) (A) (A) (A) (A) (A) (A) (A) (A) (A) (A) (A)
                 (A) (A) (A) (A) (A) (A) (A) (A) (A) (A) (A) (A)
                 (A) (A) (A) (A) (A) (A) (A) (A) (A) (A) (A) (A)
                 (A) (A) (A) (A) (A) (A) (A) (A) (A) (A) (A) (A)
                 (A) (A) (A) (A) (A) (A) (A) (A) (A) (A) (A) (A)
                 (A) (A) (A) (A) (A) (A) (A) (A) (A) (A) (A) (A)
                 (A) (A) (A) (A) (A) (A) (A) (A) (A) (A) (A) (A)
                 (A) (A) (A) (A) (A) (A) (A) (A) (A) (A) (A) (A)
                 (A) (A) (A) (A) (A) (A) (A) (A) (A) (A) (A) (A)
                 (A) (A) (A) (A) (A) (A) (A) (A) (A) (A) (A) (A)
                 (A) (A) (A) (A) (A) (A) (A) (A) (A) (A) (A) (A)
                 (A) (A) (A) (A) (A) (A) (A) (A) (A) (A) (A) (A)
                 (A) (A) (A) (A) (A) (A) (A) (A) (A) (A) (A) (A)
                 (A) (A) (A) (A) (A) (A) (A) (A) (A) (A) (A) (A)
                 (A) (A) (A) (A) (A) (A) (A) (A) (A) (A) (A) (A)
                 (A) (A) (A) (A) (A) (A) (A) (A) (A) (A) (A) (A)
                 (A) (A) (A) (A) (A) (A) (A) (A) (A) (A) (A) (A)
                 (A) (A) (A) (A) (A) (A) (A) (A) (A) (A) (A) (A)
                 (A) (A) (A) (A) (A) (A) (A) (A) (A) (A) (A) (A)
                 (A) (A) (A) (A) (A) (A) (A) (A) (A) (A) (A) (A)
                 (A) (A) (A) (A) (A) (A) (A) (A) (A) (A) (A) (A)
                 (A) (A) (A) (A) (A) (A) (A) (A) (A) (A) (A) (A)
                 (A) (A) (A) (A) (A) (A) (A) (A) (A) (A) (A) (A)
                 (A) (A) (A) (A) (A) (A) (A) (A) (A) (A) (A) (A)
                 (A) (A) (A) (A) (A) (A) (A) (A) (A) (A) (A) (A)
                 (A) (A) (A) (A) (A) (A) (A) (A) (A) (A) (A) (A)
                 (A) (A) (A) (A) (A) (A) (A) (A) (A) (A) (A) (A)
                 (A) (A) (A) (A) (A) (A) (A) (A) (A) (A) (A) (A)
                 (A) (A) (A) (A) (A) (A) (A) (A) (A) (A) (A) (A)
                 (A) (A) (A) (A) (A) (A) (A) (A) (A) (A) (A) (A)
                 (A) (A) (A) (A) (A) (A) (A) (A) (A) (A) (A) (A)
                 (A) (A) (A) (A) (A) (A) (A) (A) (A) (A) (A) (A)
                 (A) (A) (A) (A) (A) (A) (A) (A) (A) (A) (A) (A)
                 (A) (A) (A) (A) (A) (A) (A) (A) (A) (A) (A) (A)
                 (A) (A) (A) (A) (A) (A) (A) (A) (A) (A) (A) (A)
                 (A) (A) (A) (A) (A) (A) (A) (A) (A) (A) (A) (A)
                 (A) (A) (A) (A) (A) (A) (A) (A) (A) (A) (A) (A)
                 (A) (A) (A) (A) (A) (A) (A) (A) (A) (A) (A) (A)
                 (A) (A) (A) (A) (A) (A) (A) (A) (A) (A) (A) (A)
                 (A) (A) (A) (A) (A) (A) (A) (A) (A) (A) (A) (A)
                 (A) (A) (A) (A) (A) (A) (A) (A) (A) (A) (A) (A)
                 (A) (A) (A) (A) (A) (A) (A) (A) (A) (A) (A) (A)
                 (A) (A) (A) (A) (A) (A) (A) (A) (A) (A) (A) (A)
                 (A) (A) (A) (A) (A) (A) (A) (A) (A) (A) (A) (A)
                 (A) (A) (A) (A) (A) (A) (A) (A) (A) (A) (A) (A)
                 (A) (A) (A) (A) (A) (A) (A) (A) (A) (A) (A) (A)
                 (A) (A) (A) (A) (A) (A) (A) (A) (A) (A) (A) (A)
                 (A) (A) (A) (A) (A) (A) (A) (A) (A) (A) (A) (A)
                 (A) (A) (A) (A) (A) (A) (A) (A) (A) (A) (A) (A)
                 (A) (A) (A) (A) (A) (A) (A) (A) (A) (A) (A) (A)
                 (A) (A) (A) (A) (A) (A) (A) (A) (A) (A) (A) (A)
                 (A) (A) (A) (A) (A) (A) (A) (A) (A) (A) (A) (A)
                 (A) (A) (A) (A) (A) (A) (A) (A) (A) (A) (A) (A)
                 (A) (A) (A) (A) (A) (A) (A) (A) (A) (A) (A) (A)
                 (A) (A) (A) (A) (A) (A) (A) (A) (A) (A) (A) (A)
                 (A) (A) (A) (A) (A) (A) (A) (A) (A) (A) (A) (A)
                 (A) (A) (A) (A) (A) (A) (A) (A) (A) (A) (A) (A)
                 (A) (A) (A) (A) (A) (A) (A) (A) (A) (A) (A) (A)
                 (A) (A) (A) (A) (A) (A) (A) (A) (A) (A) (A) (A)
                 (A) (A) (A) (A) (A) (A) (A) (A) (A) (A) (A) (A)
                 (A) (A) (A) (A) (A) (A) (A) (A) (A) (A) (A) (A)
                 (A) (A) (A) (A) (A) (A) (A) (A) (A) (A) (A) (A)
                 (A) (A) (A) (A) (A) (A) (A) (A) (A) (A) (A) (A)
                 (A) (A) (A) (A) (A) (A) (A) (A) (A) (A) (A) (A)
                 (A) (A) (A) (A) (A) (A) (A) (A) (A) (A) (A) (A)
                 (A) (A) (A) (A) (A) (A) (A) (A) (A) (A) (A) (A)
                 (A) (A) (A) (A) (A) (A) (A) (A) (A) (A) (A) (A)
                 (A) (A) (A) (A) (A) (A) (A) (A) (A) (A) (A) (A)
                 (A) (A) (A) (A) (A) (A) (A) (A) (A) (A) (A) (A)
                 (A) (A) (A) (A) (A) (A) (A) (A) (A) (A) (A) (A)
                 (A) (A) (A) (A) (A) (A) (A) (A) (A) (A) (A) (A)
                 (A) (A) (A) (A) (A) (A) (A) (A) (A) (A) (A) (A)
                 (A) (A) (A) (A) (A) (A) (A) (A) (A) (A) (A) (A)
                 (A) (A) (A) (A) (A) (A) (A) (A) (A) (A) (A) (A)
                 (A) (A) (A) (A) (A) (A) (A) (A) (A) (A) (A) (A)
                 (A) (A) (A) (A) (A) (A) (A) (A) (A) (A) (A) (A)
                 (A) (A) (A) (A) (A) (A) (A) (A) (A) (A) (A) (A)
                 (A) (A) (A) (A) (A) (A) (A) (A) (A) (A) (A) (A)
                 (A) (A) (A) (A) (A) (A) (A) (A) (A) (A) (A) (A)
                 (A) (A) (A) (A) (A) (A) (A) (A) (A) (A) (A) (A)
                 (A) (A) (A) (A) (A) (A) (A) (A) (A) (A) (A) (A)
                 (A) (A) (A) (A) (A) (A) (A) (A) (A) (A) (A) (A)
                 (A) (A) (A) (A) (A) (A) (A) (A) (A) (A) (A) (A)
                 (A) (A) (A) (A) (A) (A) (A) (A) (A) (A) (A) (A)
                 (A) (A) (A) (A) (A) (A) (A) (A) (A) (A) (A) (A)
                 (A) (A) (A) (A) (A) (A) (A) (A) (A) (A) (A) (A)
                 (A) (A) (A) (A) (A) (A) (A) (A) (A) (A) (A) (A)
                 (A) (A) (A) (A) (A) (A) (A) (A) (A) (A) (A) (A)
                 (A) (A) (A) (A) (A) (A) (A) (A) (A) (A) (A) (A)
                 (A) (A) (A) (A) (A) (A) (A) (A) (A) (A) (A) (A)
                 (A) (A) (A) (A) (A) (A) (A) (A) (A) (A) (A) (A)
                 (A) (A) (A) (A) (A) (A) (A) (A) (A) (A) (A) (A)
                 (A) (A) (A) (A) (A) (A) (A) (A) (A) (A) (A) (A)
                 (A) (A) (A) (A) (A) (A) (A) (A) (A) (A) (A) (A)
                 (A) (A) (A) (A) (A) (A) (A) (A) (A) (A) (A) (A)
                 (A) (A) (A) (A) (A) (A) (A) (A) (A) (A) (A) (A)
                 (A) (A) (A) (A) (A) (A) (A) (A) (A) (A) (A) (A)
                 (A) (A) (A) (A) (A) (A) (A) (A) (A) (A) (A) (A)
                 (A) (A) (A) (A) (A) (A) (A) (A) (A) (A) (A) (A)
                 (A) (A) (A) (A) (A) (A) (A) (A) (A) (A) (A) (A)
                 (A) (A) (A) (A) (A) (A) (A) (A) (A) (A) (A) (A)
                 (A) (A) (A) (A) (A) (A) (A) (A) (A) (A) (A) (A)
                 (A) (A) (A) (A) (A) (A) (A) (A) (A) (A) (A) (A)
                 (A) (A) (A) (A) (A) (A) (A) (A) (A) (A) (A) (A)
                 (A) (A) (A) (A) (A) (A) (A) (A) (A) (A) (A) (A)
                 (A) (A) (A) (A) (A) (A) (A) (A) (A) (A) (A) (A)
                 (A) (A) (A) (A) (A) (A) (A) (A) (A) (A) (A) (A)
                 (A) (A) (A) (A) (A) (A) (A) (A) (A) (A) (A) (A)
                 (A) (A) (A) (A) (A) (A) (A) (A)
 Beta  Orbitals:
       Occupied  (A) (A) (A) (A) (A) (A) (A) (A) (A) (A) (A) (A)
                 (A) (A) (A) (A) (A) (A) (A) (A) (A) (A) (A) (A)
                 (A) (A) (A) (A) (A) (A) (A) (A) (A) (A) (A) (A)
                 (A) (A) (A) (A) (A) (A) (A) (A) (A) (A) (A) (A)
                 (A) (A) (A) (A) (A) (A) (A) (A) (A) (A) (A) (A)
                 (A) (A) (A) (A) (A) (A) (A) (A) (A) (A) (A) (A)
                 (A) (A) (A) (A) (A) (A) (A) (A) (A) (A) (A) (A)
                 (A) (A) (A) (A) (A) (A) (A) (A) (A) (A) (A) (A)
                 (A) (A) (A) (A) (A) (A) (A) (A) (A) (A) (A) (A)
                 (A) (A) (A) (A) (A) (A) (A) (A) (A) (A) (A) (A)
                 (A) (A) (A) (A) (A) (A) (A) (A) (A) (A) (A) (A)
                 (A) (A) (A) (A) (A) (A) (A) (A) (A) (A) (A) (A)
                 (A) (A) (A) (A) (A) (A) (A) (A) (A) (A) (A) (A)
                 (A) (A) (A) (A) (A) (A) (A) (A) (A) (A) (A) (A)
                 (A) (A) (A) (A) (A) (A) (A) (A) (A) (A) (A) (A)
                 (A) (A) (A) (A) (A) (A) (A) (A) (A) (A) (A) (A)
                 (A) (A) (A) (A) (A) (A) (A) (A) (A) (A) (A) (A)
                 (A) (A) (A) (A) (A) (A) (A) (A) (A) (A) (A) (A)
                 (A) (A) (A) (A) (A) (A) (A) (A) (A) (A) (A) (A)
                 (A) (A) (A) (A) (A) (A) (A) (A) (A) (A) (A) (A)
                 (A) (A) (A) (A) (A) (A) (A) (A) (A) (A) (A) (A)
                 (A) (A) (A) (A) (A) (A) (A) (A) (A) (A) (A) (A)
                 (A) (A) (A) (A) (A) (A) (A) (A) (A) (A)
       Virtual   (A) (A) (A) (A) (A) (A) (A) (A) (A) (A) (A) (A)
                 (A) (A) (A) (A) (A) (A) (A) (A) (A) (A) (A) (A)
                 (A) (A) (A) (A) (A) (A) (A) (A) (A) (A) (A) (A)
                 (A) (A) (A) (A) (A) (A) (A) (A) (A) (A) (A) (A)
                 (A) (A) (A) (A) (A) (A) (A) (A) (A) (A) (A) (A)
                 (A) (A) (A) (A) (A) (A) (A) (A) (A) (A) (A) (A)
                 (A) (A) (A) (A) (A) (A) (A) (A) (A) (A) (A) (A)
                 (A) (A) (A) (A) (A) (A) (A) (A) (A) (A) (A) (A)
                 (A) (A) (A) (A) (A) (A) (A) (A) (A) (A) (A) (A)
                 (A) (A) (A) (A) (A) (A) (A) (A) (A) (A) (A) (A)
                 (A) (A) (A) (A) (A) (A) (A) (A) (A) (A) (A) (A)
                 (A) (A) (A) (A) (A) (A) (A) (A) (A) (A) (A) (A)
                 (A) (A) (A) (A) (A) (A) (A) (A) (A) (A) (A) (A)
                 (A) (A) (A) (A) (A) (A) (A) (A) (A) (A) (A) (A)
                 (A) (A) (A) (A) (A) (A) (A) (A) (A) (A) (A) (A)
                 (A) (A) (A) (A) (A) (A) (A) (A) (A) (A) (A) (A)
                 (A) (A) (A) (A) (A) (A) (A) (A) (A) (A) (A) (A)
                 (A) (A) (A) (A) (A) (A) (A) (A) (A) (A) (A) (A)
                 (A) (A) (A) (A) (A) (A) (A) (A) (A) (A) (A) (A)
                 (A) (A) (A) (A) (A) (A) (A) (A) (A) (A) (A) (A)
                 (A) (A) (A) (A) (A) (A) (A) (A) (A) (A) (A) (A)
                 (A) (A) (A) (A) (A) (A) (A) (A) (A) (A) (A) (A)
                 (A) (A) (A) (A) (A) (A) (A) (A) (A) (A) (A) (A)
                 (A) (A) (A) (A) (A) (A) (A) (A) (A) (A) (A) (A)
                 (A) (A) (A) (A) (A) (A) (A) (A) (A) (A) (A) (A)
                 (A) (A) (A) (A) (A) (A) (A) (A) (A) (A) (A) (A)
                 (A) (A) (A) (A) (A) (A) (A) (A) (A) (A) (A) (A)
                 (A) (A) (A) (A) (A) (A) (A) (A) (A) (A) (A) (A)
                 (A) (A) (A) (A) (A) (A) (A) (A) (A) (A) (A) (A)
                 (A) (A) (A) (A) (A) (A) (A) (A) (A) (A) (A) (A)
                 (A) (A) (A) (A) (A) (A) (A) (A) (A) (A) (A) (A)
                 (A) (A) (A) (A) (A) (A) (A) (A) (A) (A) (A) (A)
                 (A) (A) (A) (A) (A) (A) (A) (A) (A) (A) (A) (A)
                 (A) (A) (A) (A) (A) (A) (A) (A) (A) (A) (A) (A)
                 (A) (A) (A) (A) (A) (A) (A) (A) (A) (A) (A) (A)
                 (A) (A) (A) (A) (A) (A) (A) (A) (A) (A) (A) (A)
                 (A) (A) (A) (A) (A) (A) (A) (A) (A) (A) (A) (A)
                 (A) (A) (A) (A) (A) (A) (A) (A) (A) (A) (A) (A)
                 (A) (A) (A) (A) (A) (A) (A) (A) (A) (A) (A) (A)
                 (A) (A) (A) (A) (A) (A) (A) (A) (A) (A) (A) (A)
                 (A) (A) (A) (A) (A) (A) (A) (A) (A) (A) (A) (A)
                 (A) (A) (A) (A) (A) (A) (A) (A) (A) (A) (A) (A)
                 (A) (A) (A) (A) (A) (A) (A) (A) (A) (A) (A) (A)
                 (A) (A) (A) (A) (A) (A) (A) (A) (A) (A) (A) (A)
                 (A) (A) (A) (A) (A) (A) (A) (A) (A) (A) (A) (A)
                 (A) (A) (A) (A) (A) (A) (A) (A) (A) (A) (A) (A)
                 (A) (A) (A) (A) (A) (A) (A) (A) (A) (A) (A) (A)
                 (A) (A) (A) (A) (A) (A) (A) (A) (A) (A) (A) (A)
                 (A) (A) (A) (A) (A) (A) (A) (A) (A) (A) (A) (A)
                 (A) (A) (A) (A) (A) (A) (A) (A) (A) (A) (A) (A)
                 (A) (A) (A) (A) (A) (A) (A) (A) (A) (A) (A) (A)
                 (A) (A) (A) (A) (A) (A) (A) (A) (A) (A) (A) (A)
                 (A) (A) (A) (A) (A) (A) (A) (A) (A) (A) (A) (A)
                 (A) (A) (A) (A) (A) (A) (A) (A) (A) (A) (A) (A)
                 (A) (A) (A) (A) (A) (A) (A) (A) (A) (A) (A) (A)
                 (A) (A) (A) (A) (A) (A) (A) (A) (A) (A) (A) (A)
                 (A) (A) (A) (A) (A) (A) (A) (A) (A) (A) (A) (A)
                 (A) (A) (A) (A) (A) (A) (A) (A) (A) (A) (A) (A)
                 (A) (A) (A) (A) (A) (A) (A) (A) (A) (A) (A) (A)
                 (A) (A) (A) (A) (A) (A) (A) (A) (A) (A) (A) (A)
                 (A) (A) (A) (A) (A) (A) (A) (A) (A) (A) (A) (A)
                 (A) (A) (A) (A) (A) (A) (A) (A) (A) (A) (A) (A)
                 (A) (A) (A) (A) (A) (A) (A) (A) (A) (A) (A) (A)
                 (A) (A) (A) (A) (A) (A) (A) (A) (A) (A) (A) (A)
                 (A) (A) (A) (A) (A) (A) (A) (A) (A) (A) (A) (A)
                 (A) (A) (A) (A) (A) (A) (A) (A) (A) (A) (A) (A)
                 (A) (A) (A) (A) (A) (A) (A) (A) (A) (A) (A) (A)
                 (A) (A) (A) (A) (A) (A) (A) (A) (A) (A) (A) (A)
                 (A) (A) (A) (A) (A) (A) (A) (A) (A) (A) (A) (A)
                 (A) (A) (A) (A) (A) (A) (A) (A) (A) (A) (A) (A)
                 (A) (A) (A) (A) (A) (A) (A) (A) (A) (A) (A) (A)
                 (A) (A) (A) (A) (A) (A) (A) (A) (A) (A) (A) (A)
                 (A) (A) (A) (A) (A) (A) (A) (A) (A) (A) (A) (A)
                 (A) (A) (A) (A) (A) (A) (A) (A) (A) (A) (A) (A)
                 (A) (A) (A) (A) (A) (A) (A) (A) (A) (A) (A) (A)
                 (A) (A) (A) (A) (A) (A) (A) (A) (A) (A) (A) (A)
                 (A) (A) (A) (A) (A) (A) (A) (A) (A) (A) (A) (A)
                 (A) (A) (A) (A) (A) (A) (A) (A) (A) (A) (A) (A)
                 (A) (A) (A) (A) (A) (A) (A) (A) (A) (A) (A) (A)
                 (A) (A) (A) (A) (A) (A) (A) (A) (A) (A) (A) (A)
                 (A) (A) (A) (A) (A) (A) (A) (A) (A) (A) (A) (A)
                 (A) (A) (A) (A) (A) (A) (A) (A) (A) (A) (A) (A)
                 (A) (A) (A) (A) (A) (A) (A) (A) (A) (A) (A) (A)
                 (A) (A) (A) (A) (A) (A) (A) (A) (A) (A) (A) (A)
                 (A) (A) (A) (A) (A) (A) (A) (A) (A) (A) (A) (A)
                 (A) (A) (A) (A) (A) (A) (A) (A) (A) (A) (A) (A)
                 (A) (A) (A) (A) (A) (A) (A) (A) (A) (A) (A) (A)
                 (A) (A) (A) (A) (A) (A) (A) (A) (A) (A) (A) (A)
                 (A) (A) (A) (A) (A) (A) (A) (A) (A) (A) (A) (A)
                 (A) (A) (A) (A) (A) (A) (A) (A) (A) (A) (A) (A)
                 (A) (A) (A) (A) (A) (A) (A) (A) (A) (A) (A) (A)
                 (A) (A) (A) (A) (A) (A) (A) (A) (A) (A) (A) (A)
                 (A) (A) (A) (A) (A) (A) (A) (A) (A) (A) (A) (A)
                 (A) (A) (A) (A) (A) (A) (A) (A) (A) (A) (A) (A)
                 (A) (A) (A) (A) (A) (A) (A) (A) (A) (A) (A) (A)
                 (A) (A) (A) (A) (A) (A) (A) (A) (A) (A) (A) (A)
                 (A) (A) (A) (A) (A) (A) (A) (A) (A) (A) (A) (A)
                 (A) (A) (A) (A) (A) (A) (A) (A) (A) (A) (A) (A)
                 (A) (A) (A) (A) (A) (A) (A) (A) (A) (A) (A) (A)
                 (A) (A) (A) (A) (A) (A) (A) (A) (A) (A) (A) (A)
                 (A) (A) (A) (A) (A) (A) (A) (A) (A) (A) (A) (A)
                 (A) (A) (A) (A) (A) (A) (A) (A) (A) (A) (A) (A)
                 (A) (A) (A) (A) (A) (A) (A) (A) (A) (A) (A) (A)
                 (A) (A) (A) (A) (A) (A) (A) (A) (A) (A) (A) (A)
                 (A) (A) (A) (A) (A) (A) (A) (A) (A) (A) (A) (A)
                 (A) (A) (A) (A) (A) (A) (A) (A) (A) (A) (A) (A)
                 (A) (A) (A) (A) (A) (A) (A) (A) (A) (A) (A) (A)
                 (A) (A) (A) (A) (A) (A) (A) (A) (A) (A) (A) (A)
                 (A) (A) (A) (A) (A) (A) (A) (A) (A) (A) (A) (A)
                 (A) (A) (A) (A) (A) (A) (A) (A) (A) (A) (A) (A)
                 (A) (A) (A) (A) (A) (A) (A) (A) (A) (A) (A) (A)
                 (A) (A) (A) (A) (A) (A) (A) (A) (A) (A) (A) (A)
                 (A) (A) (A) (A) (A) (A) (A) (A) (A) (A) (A) (A)
                 (A) (A) (A) (A) (A) (A) (A) (A) (A) (A) (A) (A)
                 (A) (A) (A) (A) (A) (A) (A) (A) (A) (A) (A) (A)
                 (A) (A) (A) (A) (A) (A) (A) (A) (A) (A) (A) (A)
                 (A) (A) (A) (A) (A) (A) (A) (A) (A) (A) (A) (A)
                 (A) (A) (A) (A) (A) (A) (A) (A) (A) (A) (A) (A)
                 (A) (A) (A) (A) (A) (A) (A) (A) (A) (A) (A) (A)
                 (A) (A) (A) (A) (A) (A) (A) (A) (A) (A) (A) (A)
                 (A) (A) (A) (A) (A) (A) (A) (A) (A) (A) (A) (A)
                 (A) (A) (A) (A) (A) (A) (A) (A) (A) (A) (A) (A)
                 (A) (A) (A) (A) (A) (A) (A) (A) (A) (A) (A) (A)
                 (A) (A) (A) (A) (A) (A) (A) (A) (A) (A) (A) (A)
                 (A) (A) (A) (A) (A) (A) (A) (A) (A) (A) (A) (A)
                 (A) (A) (A) (A) (A) (A) (A) (A) (A) (A) (A) (A)
                 (A) (A) (A) (A) (A) (A) (A) (A) (A) (A) (A) (A)
                 (A) (A) (A) (A) (A) (A) (A) (A) (A) (A) (A) (A)
                 (A) (A) (A) (A) (A) (A) (A) (A) (A) (A) (A) (A)
                 (A) (A) (A) (A) (A) (A) (A) (A) (A) (A) (A) (A)
                 (A) (A) (A) (A) (A) (A) (A) (A) (A) (A) (A) (A)
                 (A) (A) (A) (A) (A) (A) (A) (A) (A) (A) (A) (A)
                 (A) (A) (A) (A) (A) (A) (A) (A) (A) (A) (A) (A)
                 (A) (A) (A) (A) (A) (A) (A) (A) (A) (A) (A) (A)
                 (A) (A) (A) (A) (A) (A) (A) (A) (A) (A) (A) (A)
                 (A) (A) (A) (A) (A) (A) (A) (A) (A) (A) (A) (A)
                 (A) (A) (A) (A) (A) (A) (A) (A) (A) (A) (A) (A)
                 (A) (A) (A) (A) (A) (A) (A) (A) (A) (A) (A) (A)
                 (A) (A) (A) (A) (A) (A) (A) (A) (A) (A) (A) (A)
                 (A) (A) (A) (A) (A) (A) (A) (A) (A) (A) (A) (A)
                 (A) (A) (A) (A) (A) (A) (A) (A) (A) (A) (A) (A)
                 (A) (A) (A) (A) (A) (A) (A) (A) (A) (A) (A) (A)
                 (A) (A) (A) (A) (A) (A) (A) (A) (A) (A) (A) (A)
                 (A) (A) (A) (A) (A) (A) (A) (A) (A) (A) (A) (A)
                 (A) (A) (A) (A) (A) (A) (A) (A) (A) (A) (A) (A)
                 (A) (A) (A) (A) (A) (A) (A) (A) (A) (A) (A) (A)
                 (A) (A) (A) (A) (A) (A) (A) (A) (A) (A) (A) (A)
                 (A) (A) (A) (A) (A) (A) (A) (A) (A) (A) (A) (A)
                 (A) (A) (A) (A) (A) (A) (A) (A) (A) (A) (A) (A)
                 (A) (A) (A) (A) (A) (A) (A) (A) (A) (A) (A) (A)
                 (A) (A) (A) (A) (A) (A) (A) (A) (A) (A) (A) (A)
                 (A) (A) (A) (A) (A) (A) (A) (A) (A) (A) (A) (A)
                 (A) (A) (A) (A) (A) (A) (A) (A) (A) (A) (A) (A)
                 (A) (A) (A) (A) (A) (A) (A) (A) (A) (A) (A) (A)
                 (A) (A) (A) (A) (A) (A) (A) (A) (A) (A) (A) (A)
                 (A) (A) (A) (A) (A) (A) (A) (A) (A) (A) (A) (A)
                 (A) (A) (A) (A) (A) (A) (A) (A) (A) (A) (A) (A)
                 (A) (A) (A) (A) (A) (A) (A) (A) (A) (A) (A) (A)
                 (A) (A) (A) (A) (A) (A) (A) (A) (A) (A) (A) (A)
                 (A) (A) (A) (A) (A) (A) (A) (A) (A) (A) (A) (A)
                 (A) (A) (A) (A) (A) (A) (A) (A) (A) (A) (A) (A)
                 (A) (A) (A) (A) (A) (A) (A) (A) (A)
 The electronic state is 2-A.
 Alpha  occ. eigenvalues -- -234.21787-234.20112-234.20093-234.19330-144.21557
 Alpha  occ. eigenvalues --  -26.83301 -26.82253 -26.80408 -26.78739 -22.98285
 Alpha  occ. eigenvalues --  -22.98144 -22.97954 -22.97244 -22.97190 -22.96569
 Alpha  occ. eigenvalues --  -22.96448 -22.96324 -22.96201 -22.94845 -22.94591
 Alpha  occ. eigenvalues --  -22.94500 -18.69669 -18.68711 -18.68181 -18.68029
 Alpha  occ. eigenvalues --  -18.67856 -18.67746 -18.67576 -18.67229 -18.67217
 Alpha  occ. eigenvalues --  -18.67164 -18.67070 -18.66647 -18.66608 -18.66178
 Alpha  occ. eigenvalues --  -18.65703 -18.65384 -18.64840 -18.64448 -18.64347
 Alpha  occ. eigenvalues --  -18.64151 -18.63103 -18.62429 -14.87625 -14.00240
 Alpha  occ. eigenvalues --  -13.98666 -13.95876 -13.94866 -13.88638 -12.07683
 Alpha  occ. eigenvalues --  -12.07663 -12.07643  -9.95155  -9.92946  -9.92705
 Alpha  occ. eigenvalues --   -9.92288  -9.92110  -9.92108  -9.90687  -9.90188
 Alpha  occ. eigenvalues --   -9.88373  -9.88292  -9.87662  -9.87449  -9.85574
 Alpha  occ. eigenvalues --   -9.85052  -9.83988  -9.83868  -9.83324  -9.82520
 Alpha  occ. eigenvalues --   -9.82461  -9.82383  -9.82137  -9.82030  -9.81619
 Alpha  occ. eigenvalues --   -9.81420  -9.81291  -9.81260  -9.81037  -9.80559
 Alpha  occ. eigenvalues --   -3.00091  -2.98862  -2.90072  -2.88581  -1.90696
 Alpha  occ. eigenvalues --   -1.90498  -1.89747  -1.89326  -1.89019  -1.88597
 Alpha  occ. eigenvalues --   -1.80724  -1.80543  -1.80232  -1.79603  -1.78838
 Alpha  occ. eigenvalues --   -1.78612  -1.49126  -0.90789  -0.89948  -0.89685
 Alpha  occ. eigenvalues --   -0.89251  -0.89079  -0.88629  -0.88583  -0.87548
 Alpha  occ. eigenvalues --   -0.83217  -0.83053  -0.82104  -0.81887  -0.81821
 Alpha  occ. eigenvalues --   -0.81124  -0.81091  -0.80907  -0.80815  -0.80472
 Alpha  occ. eigenvalues --   -0.80253  -0.79169  -0.78827  -0.75529  -0.75140
 Alpha  occ. eigenvalues --   -0.74996  -0.73843  -0.72722  -0.72021  -0.71313
 Alpha  occ. eigenvalues --   -0.69698  -0.69549  -0.69111  -0.65960  -0.63106
 Alpha  occ. eigenvalues --   -0.62668  -0.62267  -0.62000  -0.61148  -0.60463
 Alpha  occ. eigenvalues --   -0.58859  -0.58109  -0.55201  -0.54089  -0.51396
 Alpha  occ. eigenvalues --   -0.51268  -0.50598  -0.50352  -0.50245  -0.49485
 Alpha  occ. eigenvalues --   -0.48588  -0.47943  -0.45227  -0.44385  -0.42193
 Alpha  occ. eigenvalues --   -0.41601  -0.41446  -0.41225  -0.40813  -0.40146
 Alpha  occ. eigenvalues --   -0.39897  -0.39578  -0.39280  -0.39039  -0.38646
 Alpha  occ. eigenvalues --   -0.37967  -0.36495  -0.36325  -0.35802  -0.35482
 Alpha  occ. eigenvalues --   -0.35108  -0.34975  -0.34680  -0.34439  -0.34358
 Alpha  occ. eigenvalues --   -0.34156  -0.33984  -0.33839  -0.33568  -0.33397
 Alpha  occ. eigenvalues --   -0.33287  -0.33155  -0.33018  -0.32752  -0.32557
 Alpha  occ. eigenvalues --   -0.32536  -0.32066  -0.32005  -0.31842  -0.31655
 Alpha  occ. eigenvalues --   -0.31541  -0.31489  -0.30552  -0.30144  -0.30104
 Alpha  occ. eigenvalues --   -0.29475  -0.29277  -0.29101  -0.28793  -0.28693
 Alpha  occ. eigenvalues --   -0.28515  -0.28271  -0.28153  -0.27696  -0.27639
 Alpha  occ. eigenvalues --   -0.27569  -0.27403  -0.27127  -0.27032  -0.26954
 Alpha  occ. eigenvalues --   -0.26691  -0.26616  -0.26111  -0.26037  -0.25798
 Alpha  occ. eigenvalues --   -0.25532  -0.25430  -0.25355  -0.25232  -0.25061
 Alpha  occ. eigenvalues --   -0.24751  -0.24513  -0.24285  -0.24248  -0.24057
 Alpha  occ. eigenvalues --   -0.23939  -0.23856  -0.23498  -0.23373  -0.23038
 Alpha  occ. eigenvalues --   -0.22855  -0.22693  -0.22494  -0.22134  -0.22031
 Alpha  occ. eigenvalues --   -0.21247  -0.21026  -0.20691  -0.20611  -0.20002
 Alpha  occ. eigenvalues --   -0.19941  -0.19625  -0.19256  -0.19132  -0.18783
 Alpha  occ. eigenvalues --   -0.18746  -0.18278  -0.18097  -0.17914  -0.17632
 Alpha  occ. eigenvalues --   -0.17475  -0.17400  -0.17134  -0.16611  -0.16457
 Alpha  occ. eigenvalues --   -0.16356  -0.16257  -0.15983  -0.15785  -0.15494
 Alpha  occ. eigenvalues --   -0.15403  -0.15248  -0.15167  -0.14969  -0.14830
 Alpha  occ. eigenvalues --   -0.14380  -0.14188  -0.14053  -0.13854  -0.13336
 Alpha  occ. eigenvalues --   -0.13016  -0.12886  -0.12678  -0.12192  -0.11906
 Alpha  occ. eigenvalues --   -0.10887  -0.10830  -0.09566  -0.09127  -0.08469
 Alpha virt. eigenvalues --   -0.03511  -0.03206  -0.02782  -0.02750  -0.01522
 Alpha virt. eigenvalues --   -0.00823  -0.00617   0.00255   0.00875   0.02530
 Alpha virt. eigenvalues --    0.02770   0.03022   0.03526   0.04307   0.04628
 Alpha virt. eigenvalues --    0.05180   0.05287   0.05698   0.06132   0.06256
 Alpha virt. eigenvalues --    0.06637   0.06944   0.07714   0.07848   0.08191
 Alpha virt. eigenvalues --    0.08749   0.09208   0.09498   0.09781   0.10036
 Alpha virt. eigenvalues --    0.10166   0.10739   0.11092   0.11257   0.11409
 Alpha virt. eigenvalues --    0.11681   0.11856   0.12115   0.12623   0.12845
 Alpha virt. eigenvalues --    0.13271   0.13563   0.14107   0.14251   0.14368
 Alpha virt. eigenvalues --    0.14610   0.14810   0.15133   0.15426   0.15535
 Alpha virt. eigenvalues --    0.15665   0.15787   0.16270   0.16345   0.16428
 Alpha virt. eigenvalues --    0.16559   0.16701   0.16830   0.16917   0.17070
 Alpha virt. eigenvalues --    0.17223   0.17280   0.17409   0.17705   0.17832
 Alpha virt. eigenvalues --    0.17987   0.18236   0.18357   0.18445   0.18622
 Alpha virt. eigenvalues --    0.18702   0.18857   0.18993   0.19230   0.19335
 Alpha virt. eigenvalues --    0.19530   0.19676   0.20005   0.20230   0.20570
 Alpha virt. eigenvalues --    0.20623   0.20677   0.20772   0.21024   0.21165
 Alpha virt. eigenvalues --    0.21396   0.21485   0.21740   0.22004   0.22032
 Alpha virt. eigenvalues --    0.22172   0.22273   0.22567   0.22820   0.22879
 Alpha virt. eigenvalues --    0.23177   0.23433   0.23668   0.23808   0.24076
 Alpha virt. eigenvalues --    0.24473   0.24513   0.24641   0.24822   0.24877
 Alpha virt. eigenvalues --    0.25322   0.25412   0.25625   0.25837   0.26061
 Alpha virt. eigenvalues --    0.26398   0.26626   0.27000   0.27018   0.27141
 Alpha virt. eigenvalues --    0.27484   0.27796   0.27891   0.28022   0.28159
 Alpha virt. eigenvalues --    0.28334   0.28666   0.28701   0.28770   0.29038
 Alpha virt. eigenvalues --    0.29373   0.29559   0.29673   0.29925   0.29987
 Alpha virt. eigenvalues --    0.30101   0.30406   0.30712   0.30819   0.31150
 Alpha virt. eigenvalues --    0.31330   0.31597   0.31714   0.32049   0.32244
 Alpha virt. eigenvalues --    0.32569   0.32893   0.33153   0.33441   0.33532
 Alpha virt. eigenvalues --    0.33789   0.33895   0.34053   0.34271   0.34565
 Alpha virt. eigenvalues --    0.34643   0.34799   0.35313   0.35401   0.35464
 Alpha virt. eigenvalues --    0.35744   0.36242   0.36374   0.36607   0.36776
 Alpha virt. eigenvalues --    0.37022   0.37129   0.37148   0.37258   0.37486
 Alpha virt. eigenvalues --    0.37983   0.38068   0.38148   0.38687   0.38716
 Alpha virt. eigenvalues --    0.39097   0.39381   0.39562   0.39730   0.39878
 Alpha virt. eigenvalues --    0.40226   0.40549   0.40822   0.40932   0.41139
 Alpha virt. eigenvalues --    0.41199   0.41452   0.41575   0.41644   0.41901
 Alpha virt. eigenvalues --    0.42101   0.42187   0.42324   0.42544   0.42662
 Alpha virt. eigenvalues --    0.42852   0.43068   0.43203   0.43537   0.43615
 Alpha virt. eigenvalues --    0.43665   0.43819   0.43964   0.44209   0.44419
 Alpha virt. eigenvalues --    0.44669   0.44682   0.44781   0.44889   0.45132
 Alpha virt. eigenvalues --    0.45348   0.45438   0.45593   0.45738   0.45813
 Alpha virt. eigenvalues --    0.45898   0.45997   0.46166   0.46345   0.46422
 Alpha virt. eigenvalues --    0.46449   0.46585   0.46643   0.46829   0.47087
 Alpha virt. eigenvalues --    0.47251   0.47356   0.47421   0.47677   0.47772
 Alpha virt. eigenvalues --    0.47894   0.48066   0.48154   0.48308   0.48423
 Alpha virt. eigenvalues --    0.48479   0.48627   0.48738   0.48799   0.48936
 Alpha virt. eigenvalues --    0.49033   0.49217   0.49385   0.49464   0.49590
 Alpha virt. eigenvalues --    0.49704   0.50016   0.50117   0.50311   0.50430
 Alpha virt. eigenvalues --    0.50621   0.50677   0.50738   0.51046   0.51074
 Alpha virt. eigenvalues --    0.51169   0.51336   0.51530   0.51695   0.51882
 Alpha virt. eigenvalues --    0.51972   0.52130   0.52217   0.52384   0.52618
 Alpha virt. eigenvalues --    0.52808   0.52930   0.53119   0.53328   0.53344
 Alpha virt. eigenvalues --    0.53523   0.53964   0.54119   0.54208   0.54249
 Alpha virt. eigenvalues --    0.54263   0.54584   0.54601   0.55058   0.55215
 Alpha virt. eigenvalues --    0.55377   0.55528   0.55830   0.56163   0.56308
 Alpha virt. eigenvalues --    0.56473   0.56550   0.56851   0.56965   0.57104
 Alpha virt. eigenvalues --    0.57253   0.57465   0.57572   0.57861   0.58177
 Alpha virt. eigenvalues --    0.58304   0.58786   0.58838   0.58923   0.59274
 Alpha virt. eigenvalues --    0.59439   0.59496   0.59571   0.59772   0.60066
 Alpha virt. eigenvalues --    0.60122   0.60522   0.60669   0.60877   0.60912
 Alpha virt. eigenvalues --    0.61185   0.61393   0.61708   0.62019   0.62194
 Alpha virt. eigenvalues --    0.62484   0.63054   0.63116   0.63300   0.63518
 Alpha virt. eigenvalues --    0.63615   0.63986   0.64258   0.64591   0.65233
 Alpha virt. eigenvalues --    0.65312   0.65507   0.65933   0.66156   0.66495
 Alpha virt. eigenvalues --    0.66733   0.66818   0.67011   0.67631   0.67903
 Alpha virt. eigenvalues --    0.67939   0.68295   0.68408   0.68820   0.69209
 Alpha virt. eigenvalues --    0.69617   0.69992   0.70326   0.70410   0.70711
 Alpha virt. eigenvalues --    0.70822   0.71269   0.71370   0.71603   0.71722
 Alpha virt. eigenvalues --    0.72258   0.72516   0.72944   0.73154   0.73405
 Alpha virt. eigenvalues --    0.73766   0.74362   0.74407   0.74674   0.74947
 Alpha virt. eigenvalues --    0.75350   0.75564   0.75713   0.75980   0.76516
 Alpha virt. eigenvalues --    0.76545   0.76788   0.77279   0.77444   0.77763
 Alpha virt. eigenvalues --    0.77922   0.78467   0.78652   0.78882   0.79150
 Alpha virt. eigenvalues --    0.79475   0.79596   0.79775   0.80026   0.80485
 Alpha virt. eigenvalues --    0.80725   0.80769   0.80879   0.81256   0.81680
 Alpha virt. eigenvalues --    0.81723   0.82007   0.82316   0.82386   0.82715
 Alpha virt. eigenvalues --    0.82948   0.83170   0.83270   0.83552   0.83620
 Alpha virt. eigenvalues --    0.84282   0.84470   0.84792   0.85070   0.85129
 Alpha virt. eigenvalues --    0.85398   0.85549   0.85818   0.86288   0.86455
 Alpha virt. eigenvalues --    0.86782   0.87252   0.87406   0.87631   0.87892
 Alpha virt. eigenvalues --    0.88012   0.88438   0.88602   0.88752   0.89219
 Alpha virt. eigenvalues --    0.89387   0.89594   0.89705   0.89878   0.90333
 Alpha virt. eigenvalues --    0.90528   0.91125   0.91196   0.91573   0.91712
 Alpha virt. eigenvalues --    0.91830   0.92064   0.92278   0.92411   0.92745
 Alpha virt. eigenvalues --    0.92761   0.93309   0.93665   0.93757   0.93968
 Alpha virt. eigenvalues --    0.94142   0.94364   0.94508   0.94607   0.94849
 Alpha virt. eigenvalues --    0.95077   0.95487   0.95821   0.96004   0.96200
 Alpha virt. eigenvalues --    0.96315   0.96979   0.97465   0.97655   0.97864
 Alpha virt. eigenvalues --    0.98085   0.98521   0.98653   0.98771   0.98944
 Alpha virt. eigenvalues --    0.99245   0.99699   0.99874   1.00322   1.00392
 Alpha virt. eigenvalues --    1.00614   1.00767   1.01076   1.01707   1.01766
 Alpha virt. eigenvalues --    1.01899   1.02055   1.02731   1.02776   1.03180
 Alpha virt. eigenvalues --    1.03234   1.03497   1.03695   1.04033   1.04612
 Alpha virt. eigenvalues --    1.04869   1.04921   1.05162   1.05538   1.05747
 Alpha virt. eigenvalues --    1.05991   1.06320   1.06667   1.06861   1.06908
 Alpha virt. eigenvalues --    1.07489   1.07854   1.08179   1.08331   1.08724
 Alpha virt. eigenvalues --    1.08954   1.09442   1.09504   1.09876   1.10195
 Alpha virt. eigenvalues --    1.10221   1.10398   1.10661   1.11200   1.11330
 Alpha virt. eigenvalues --    1.11481   1.11830   1.12177   1.12274   1.12336
 Alpha virt. eigenvalues --    1.12633   1.12951   1.12982   1.13479   1.13584
 Alpha virt. eigenvalues --    1.13759   1.14027   1.14213   1.14451   1.14805
 Alpha virt. eigenvalues --    1.14898   1.15055   1.15225   1.15411   1.15802
 Alpha virt. eigenvalues --    1.16143   1.16476   1.16694   1.16972   1.17053
 Alpha virt. eigenvalues --    1.17239   1.17411   1.17608   1.17864   1.18100
 Alpha virt. eigenvalues --    1.18310   1.18737   1.18978   1.19304   1.19698
 Alpha virt. eigenvalues --    1.19934   1.20025   1.20444   1.20894   1.21072
 Alpha virt. eigenvalues --    1.21176   1.21308   1.21458   1.21729   1.22144
 Alpha virt. eigenvalues --    1.22481   1.23081   1.23216   1.23331   1.23689
 Alpha virt. eigenvalues --    1.23943   1.24770   1.24928   1.25014   1.25634
 Alpha virt. eigenvalues --    1.25856   1.26133   1.26495   1.26789   1.26868
 Alpha virt. eigenvalues --    1.27061   1.27631   1.27793   1.27945   1.28337
 Alpha virt. eigenvalues --    1.28545   1.28919   1.29017   1.29517   1.29790
 Alpha virt. eigenvalues --    1.30062   1.30169   1.30756   1.31534   1.32017
 Alpha virt. eigenvalues --    1.32089   1.32381   1.32906   1.33999   1.34172
 Alpha virt. eigenvalues --    1.34670   1.34800   1.35041   1.35245   1.35408
 Alpha virt. eigenvalues --    1.35782   1.35919   1.36640   1.37238   1.38162
 Alpha virt. eigenvalues --    1.38180   1.38366   1.38929   1.38991   1.39402
 Alpha virt. eigenvalues --    1.39933   1.40596   1.40859   1.41459   1.42091
 Alpha virt. eigenvalues --    1.42333   1.42575   1.42701   1.42907   1.43296
 Alpha virt. eigenvalues --    1.43665   1.44044   1.44083   1.44231   1.44890
 Alpha virt. eigenvalues --    1.45430   1.45641   1.46000   1.46139   1.46737
 Alpha virt. eigenvalues --    1.47001   1.47368   1.47941   1.48271   1.48631
 Alpha virt. eigenvalues --    1.49061   1.49119   1.49264   1.49702   1.50204
 Alpha virt. eigenvalues --    1.50228   1.50639   1.50713   1.51204   1.51323
 Alpha virt. eigenvalues --    1.51535   1.51663   1.51738   1.51878   1.52379
 Alpha virt. eigenvalues --    1.52582   1.52627   1.53002   1.53368   1.53494
 Alpha virt. eigenvalues --    1.53770   1.54031   1.54181   1.54404   1.54508
 Alpha virt. eigenvalues --    1.54743   1.54893   1.54992   1.55180   1.55407
 Alpha virt. eigenvalues --    1.55674   1.55768   1.55987   1.56125   1.56368
 Alpha virt. eigenvalues --    1.56460   1.56696   1.56925   1.57304   1.57527
 Alpha virt. eigenvalues --    1.57795   1.57983   1.58188   1.58277   1.58464
 Alpha virt. eigenvalues --    1.58695   1.58934   1.59373   1.59443   1.59705
 Alpha virt. eigenvalues --    1.59821   1.60000   1.60290   1.60571   1.60693
 Alpha virt. eigenvalues --    1.60968   1.61200   1.61235   1.61492   1.61886
 Alpha virt. eigenvalues --    1.62342   1.62511   1.62764   1.62931   1.63328
 Alpha virt. eigenvalues --    1.63519   1.63849   1.63980   1.64217   1.64582
 Alpha virt. eigenvalues --    1.64733   1.65063   1.65193   1.65272   1.65390
 Alpha virt. eigenvalues --    1.65931   1.66238   1.66687   1.66842   1.67033
 Alpha virt. eigenvalues --    1.67320   1.67511   1.68003   1.68496   1.68689
 Alpha virt. eigenvalues --    1.69046   1.69330   1.69464   1.69645   1.69803
 Alpha virt. eigenvalues --    1.70176   1.70422   1.70586   1.71248   1.71409
 Alpha virt. eigenvalues --    1.71934   1.71980   1.72265   1.72603   1.72807
 Alpha virt. eigenvalues --    1.73164   1.73447   1.73813   1.74248   1.74532
 Alpha virt. eigenvalues --    1.74898   1.75322   1.75437   1.75759   1.76104
 Alpha virt. eigenvalues --    1.76168   1.76406   1.76698   1.77080   1.77345
 Alpha virt. eigenvalues --    1.77963   1.78197   1.78547   1.78663   1.79095
 Alpha virt. eigenvalues --    1.79168   1.79300   1.79719   1.80026   1.80127
 Alpha virt. eigenvalues --    1.80340   1.80615   1.80932   1.81030   1.81559
 Alpha virt. eigenvalues --    1.81829   1.82201   1.82503   1.83006   1.83480
 Alpha virt. eigenvalues --    1.83598   1.84071   1.84355   1.84519   1.84862
 Alpha virt. eigenvalues --    1.84921   1.85584   1.85870   1.86104   1.86284
 Alpha virt. eigenvalues --    1.87092   1.87217   1.87444   1.87542   1.87980
 Alpha virt. eigenvalues --    1.88261   1.88545   1.88997   1.89204   1.89417
 Alpha virt. eigenvalues --    1.89802   1.90145   1.90629   1.90851   1.91427
 Alpha virt. eigenvalues --    1.92024   1.92213   1.92422   1.92914   1.92999
 Alpha virt. eigenvalues --    1.93453   1.93610   1.94104   1.94229   1.94640
 Alpha virt. eigenvalues --    1.94916   1.95340   1.95474   1.96031   1.96180
 Alpha virt. eigenvalues --    1.96442   1.96670   1.97011   1.97246   1.97499
 Alpha virt. eigenvalues --    1.97572   1.97864   1.98090   1.98667   1.99343
 Alpha virt. eigenvalues --    1.99580   2.00037   2.00199   2.00299   2.00559
 Alpha virt. eigenvalues --    2.00683   2.01430   2.01786   2.01849   2.02258
 Alpha virt. eigenvalues --    2.02358   2.02855   2.03042   2.03450   2.03797
 Alpha virt. eigenvalues --    2.04063   2.04677   2.04979   2.05104   2.05393
 Alpha virt. eigenvalues --    2.05489   2.05877   2.06285   2.06517   2.06741
 Alpha virt. eigenvalues --    2.06887   2.07432   2.07537   2.07781   2.08276
 Alpha virt. eigenvalues --    2.08559   2.08730   2.09248   2.09619   2.10079
 Alpha virt. eigenvalues --    2.10405   2.10985   2.11123   2.11339   2.11493
 Alpha virt. eigenvalues --    2.11929   2.12521   2.12663   2.12962   2.13530
 Alpha virt. eigenvalues --    2.13987   2.14174   2.14456   2.14793   2.15651
 Alpha virt. eigenvalues --    2.15897   2.16092   2.16273   2.16818   2.17080
 Alpha virt. eigenvalues --    2.17399   2.17679   2.18109   2.18349   2.18684
 Alpha virt. eigenvalues --    2.18845   2.19309   2.19603   2.19839   2.20257
 Alpha virt. eigenvalues --    2.20630   2.20983   2.21507   2.21861   2.22367
 Alpha virt. eigenvalues --    2.22397   2.22520   2.23195   2.23469   2.23473
 Alpha virt. eigenvalues --    2.23875   2.24496   2.24748   2.25320   2.25483
 Alpha virt. eigenvalues --    2.26005   2.26287   2.26431   2.26587   2.27041
 Alpha virt. eigenvalues --    2.27265   2.27387   2.27642   2.28270   2.28488
 Alpha virt. eigenvalues --    2.28591   2.29095   2.29189   2.29569   2.29909
 Alpha virt. eigenvalues --    2.29983   2.30390   2.30705   2.31096   2.31135
 Alpha virt. eigenvalues --    2.31389   2.31628   2.31861   2.32246   2.32321
 Alpha virt. eigenvalues --    2.32599   2.32965   2.33199   2.33464   2.33651
 Alpha virt. eigenvalues --    2.34027   2.34477   2.34561   2.34603   2.35201
 Alpha virt. eigenvalues --    2.35296   2.35612   2.35855   2.36026   2.36414
 Alpha virt. eigenvalues --    2.36517   2.36587   2.36969   2.37384   2.37566
 Alpha virt. eigenvalues --    2.37854   2.37929   2.38090   2.38597   2.38688
 Alpha virt. eigenvalues --    2.39389   2.39614   2.39791   2.40089   2.40149
 Alpha virt. eigenvalues --    2.40433   2.40767   2.41036   2.41419   2.41607
 Alpha virt. eigenvalues --    2.42036   2.42170   2.42775   2.42904   2.43271
 Alpha virt. eigenvalues --    2.43673   2.43990   2.44439   2.44849   2.44914
 Alpha virt. eigenvalues --    2.45255   2.45562   2.45825   2.46053   2.46570
 Alpha virt. eigenvalues --    2.46926   2.47314   2.47648   2.47726   2.48401
 Alpha virt. eigenvalues --    2.48788   2.49542   2.49756   2.50058   2.50255
 Alpha virt. eigenvalues --    2.50433   2.50813   2.51106   2.51693   2.52049
 Alpha virt. eigenvalues --    2.52191   2.52732   2.52799   2.53369   2.53392
 Alpha virt. eigenvalues --    2.53711   2.53846   2.54243   2.54749   2.54882
 Alpha virt. eigenvalues --    2.55290   2.55505   2.55834   2.56106   2.56206
 Alpha virt. eigenvalues --    2.56694   2.56783   2.56984   2.57218   2.57308
 Alpha virt. eigenvalues --    2.57625   2.57667   2.57787   2.58313   2.58558
 Alpha virt. eigenvalues --    2.58812   2.59033   2.59252   2.59459   2.59912
 Alpha virt. eigenvalues --    2.60184   2.60363   2.60789   2.61139   2.61473
 Alpha virt. eigenvalues --    2.61793   2.62189   2.62714   2.62919   2.62971
 Alpha virt. eigenvalues --    2.63058   2.63323   2.63579   2.63718   2.64196
 Alpha virt. eigenvalues --    2.64570   2.64713   2.64894   2.65147   2.65252
 Alpha virt. eigenvalues --    2.66022   2.66209   2.66765   2.66833   2.67261
 Alpha virt. eigenvalues --    2.67327   2.67972   2.68029   2.68584   2.68839
 Alpha virt. eigenvalues --    2.68984   2.69473   2.69793   2.70011   2.70178
 Alpha virt. eigenvalues --    2.70413   2.70897   2.71345   2.71806   2.71933
 Alpha virt. eigenvalues --    2.72532   2.72834   2.73100   2.73526   2.73770
 Alpha virt. eigenvalues --    2.74069   2.74222   2.74421   2.75682   2.76187
 Alpha virt. eigenvalues --    2.76247   2.76514   2.76714   2.76845   2.77098
 Alpha virt. eigenvalues --    2.78189   2.78683   2.78903   2.79239   2.79704
 Alpha virt. eigenvalues --    2.80201   2.80392   2.81211   2.81825   2.82124
 Alpha virt. eigenvalues --    2.82519   2.82744   2.83121   2.83309   2.83793
 Alpha virt. eigenvalues --    2.84416   2.84749   2.84958   2.85380   2.85576
 Alpha virt. eigenvalues --    2.85746   2.85869   2.86414   2.86734   2.87038
 Alpha virt. eigenvalues --    2.87473   2.87821   2.88069   2.88150   2.88448
 Alpha virt. eigenvalues --    2.88751   2.88915   2.89266   2.89546   2.90346
 Alpha virt. eigenvalues --    2.90735   2.91226   2.91389   2.92061   2.92406
 Alpha virt. eigenvalues --    2.92826   2.92985   2.93602   2.94052   2.94317
 Alpha virt. eigenvalues --    2.94430   2.94610   2.94815   2.95172   2.95845
 Alpha virt. eigenvalues --    2.96508   2.96714   2.96799   2.97283   2.97507
 Alpha virt. eigenvalues --    2.97895   2.98109   2.98575   2.99160   2.99474
 Alpha virt. eigenvalues --    2.99661   3.00565   3.00736   3.01041   3.01363
 Alpha virt. eigenvalues --    3.01549   3.01974   3.02574   3.02796   3.02888
 Alpha virt. eigenvalues --    3.03315   3.03554   3.03769   3.04162   3.04584
 Alpha virt. eigenvalues --    3.04951   3.05033   3.05367   3.05604   3.05703
 Alpha virt. eigenvalues --    3.06029   3.06413   3.06467   3.06691   3.07005
 Alpha virt. eigenvalues --    3.07073   3.07292   3.07504   3.07820   3.08292
 Alpha virt. eigenvalues --    3.08373   3.08546   3.08665   3.08955   3.09351
 Alpha virt. eigenvalues --    3.09581   3.09793   3.10086   3.10319   3.10558
 Alpha virt. eigenvalues --    3.10733   3.10934   3.11204   3.11349   3.11797
 Alpha virt. eigenvalues --    3.12095   3.12389   3.12696   3.12811   3.13079
 Alpha virt. eigenvalues --    3.13550   3.14026   3.14191   3.14563   3.14819
 Alpha virt. eigenvalues --    3.15255   3.15737   3.15932   3.16369   3.16537
 Alpha virt. eigenvalues --    3.16678   3.17297   3.17682   3.17777   3.18104
 Alpha virt. eigenvalues --    3.18298   3.18527   3.18596   3.18841   3.19144
 Alpha virt. eigenvalues --    3.19510   3.19750   3.20005   3.20045   3.20305
 Alpha virt. eigenvalues --    3.20773   3.20938   3.21104   3.21239   3.21412
 Alpha virt. eigenvalues --    3.21718   3.22032   3.22080   3.22267   3.22490
 Alpha virt. eigenvalues --    3.22856   3.22898   3.22964   3.23296   3.23811
 Alpha virt. eigenvalues --    3.23941   3.24178   3.24335   3.24494   3.24729
 Alpha virt. eigenvalues --    3.25088   3.25405   3.25419   3.25522   3.25864
 Alpha virt. eigenvalues --    3.26110   3.26555   3.26782   3.26937   3.27117
 Alpha virt. eigenvalues --    3.27367   3.27607   3.27916   3.28175   3.28495
 Alpha virt. eigenvalues --    3.28664   3.28784   3.29046   3.29344   3.29784
 Alpha virt. eigenvalues --    3.29912   3.30172   3.30514   3.30853   3.31116
 Alpha virt. eigenvalues --    3.31210   3.31535   3.32197   3.32349   3.32590
 Alpha virt. eigenvalues --    3.32963   3.33054   3.33397   3.33587   3.33824
 Alpha virt. eigenvalues --    3.34174   3.34230   3.34547   3.34883   3.35035
 Alpha virt. eigenvalues --    3.35153   3.35438   3.35811   3.36222   3.36268
 Alpha virt. eigenvalues --    3.36383   3.36750   3.36854   3.37283   3.37491
 Alpha virt. eigenvalues --    3.37676   3.38047   3.38131   3.38318   3.38708
 Alpha virt. eigenvalues --    3.38809   3.39268   3.39366   3.39880   3.39998
 Alpha virt. eigenvalues --    3.40248   3.40297   3.40693   3.40826   3.41102
 Alpha virt. eigenvalues --    3.41359   3.41648   3.41778   3.42044   3.42313
 Alpha virt. eigenvalues --    3.42578   3.42877   3.42974   3.43420   3.43557
 Alpha virt. eigenvalues --    3.43919   3.44157   3.44602   3.44800   3.45029
 Alpha virt. eigenvalues --    3.45186   3.45469   3.45817   3.46047   3.46187
 Alpha virt. eigenvalues --    3.46401   3.46848   3.47011   3.47328   3.47482
 Alpha virt. eigenvalues --    3.47671   3.47795   3.48058   3.48405   3.48902
 Alpha virt. eigenvalues --    3.49054   3.49307   3.49369   3.49999   3.50253
 Alpha virt. eigenvalues --    3.50380   3.50599   3.50974   3.51115   3.51292
 Alpha virt. eigenvalues --    3.51553   3.51783   3.51836   3.52219   3.52531
 Alpha virt. eigenvalues --    3.52696   3.52884   3.52936   3.53189   3.53604
 Alpha virt. eigenvalues --    3.54023   3.54165   3.54409   3.54524   3.54957
 Alpha virt. eigenvalues --    3.55238   3.55447   3.55677   3.56036   3.56300
 Alpha virt. eigenvalues --    3.56541   3.56621   3.56824   3.57320   3.57461
 Alpha virt. eigenvalues --    3.57508   3.57927   3.58077   3.58467   3.58692
 Alpha virt. eigenvalues --    3.59096   3.59435   3.59513   3.59877   3.60304
 Alpha virt. eigenvalues --    3.60492   3.60704   3.60842   3.61280   3.61576
 Alpha virt. eigenvalues --    3.61685   3.61946   3.62328   3.62880   3.63565
 Alpha virt. eigenvalues --    3.63720   3.63975   3.64754   3.65017   3.65146
 Alpha virt. eigenvalues --    3.65544   3.66439   3.67087   3.67759   3.68021
 Alpha virt. eigenvalues --    3.68722   3.68791   3.68976   3.69192   3.69418
 Alpha virt. eigenvalues --    3.70453   3.70795   3.71089   3.71379   3.72245
 Alpha virt. eigenvalues --    3.72748   3.73349   3.73697   3.73857   3.74088
 Alpha virt. eigenvalues --    3.74588   3.74839   3.75032   3.75969   3.76390
 Alpha virt. eigenvalues --    3.76975   3.77485   3.77805   3.77969   3.78674
 Alpha virt. eigenvalues --    3.79121   3.80128   3.80507   3.80846   3.81472
 Alpha virt. eigenvalues --    3.82103   3.82672   3.83349   3.83512   3.84074
[...]
 674,-0.00004247,-0.00002554,-0.00005649,-0.00008935,0.00008206,-0.0000
 5492,-0.00003407,0.00001067,0.00002370,0.00005472,-0.00000052,0.000023
 18,0.00006038,0.00001861,0.00002920,0.00005139,0.00002310,0.00002964,0
 .00001925,-0.00001176,0.00018736,0.00007373,-0.00004903,-0.00000245,0.
 00000005,-0.00000128,0.00000129,-0.00000055,-0.00000012,0.00000544,0.0
 0000242,0.00000237,0.00000573,-0.00000317,-0.00000044,-0.00003866,0.00
 000085,-0.00000929,0.00002491,0.00001302,0.00001121,0.00003963,-0.0000
 0395,0.00000282,0.00000014,-0.00000187,0.00000174,0.00000680,-0.000001
 80,-0.00000429,-0.00007115,-0.00001895,0.00003372,0.00003582,0.0000135
 8,-0.00000665,0.00005022,0.00002570,-0.00006321,-0.00000004,-0.0000028
 7,-0.00000053,0.00000560,0.00000049,0.00000193,0.00000059,-0.00001369,
 -0.00001104,0.00000819,-0.00000832,-0.00000208,0.00001203,0.00000543,0
 .00001353,-0.00001412,0.00000138,-0.00001310,-0.00000903,0.00000547,-0
 .00000020,0.00001834,-0.00002075,-0.00000331,-0.00001851,0.00001366,-0
 .00001407,-0.00002017,0.00001576,0.00000626,0.00002542,-0.00000623,-0.
 00000006,0.00000154,-0.00000506,-0.00000823,0.00000187,0.00000184,-0.0
 0001206,-0.00001552,0.00000780,0.00000603,0.00001736,-0.00009951,-0.00
 000234,-0.00001192,0.00007842,0.00001102,0.00001748,0.00004123,-0.0000
 0817,0.09522602,-0.02938912,-0.23600859,0.00620862,0.00234299,-0.00692
 718,-0.00039903,-0.00142761,0.00131188,-0.00144109,-0.00040533,-0.0002
 7118,0.00132218,0.00100314,-0.00025626,-0.00049476,0.00129000,-0.00006
 290,-0.00000867,-0.00000162,0.00000161,0.00000931,0.00001007,-0.000006
 07,0.00001503,-0.00000552,-0.00000673,-0.00003260,0.00001727,0.0000248
 3,-0.00004547,-0.00004078,0.00003077,0.00007695,0.00004319,-0.00000612
 ,0.00004731,0.00005390,-0.00002699,-0.00009157,-0.00001666,0.00002845,
 0.00003686,0.00001965,-0.00001643,0.00009567,-0.00001812,-0.00001375,0
 .00000281,0.00001287,-0.00001291,-0.00001644,0.00000296,0.00001850,-0.
 00001771,-0.00005619,-0.00011518,0.00004889,0.00004637,0.00007300,0.00
 001588,0.00003569,0.00002414,-0.00002322,0.00002267,0.00000775,-0.0000
 0282,-0.00000121,-0.00000003,0.00000932,-0.00000827,-0.00000114,-0.000
 37220,-0.00003051,0.00017457,0.00000147,0.00000027,0.00000200,0.000001
 50,0.00000161,0.00000024,-0.00211072,0.00003783,0.00357683,0.00859851,
 -0.00363623,-0.01896527,-0.00002577,-0.00002713,0.00001894,-0.00000745
 ,0.00000033,0.00001601,-0.00000042,-0.00000991,0.00002876,-0.00000055,
 -0.00000050,0.00000184,0.00002219,-0.00001530,0.00000331,-0.00000267,0
 .00001245,0.00000524,0.00001181,-0.00000379,0.00000035,-0.00000286,0.0
 0000009,-0.00000152,0.00000225,-0.00000009,0.00000150,0.00000355,-0.00
 000206,-0.00000271,0.00000627,-0.00000661,0.00000342,-0.00000546,0.000
 00868,-0.00000906,0.00002084,0.00000596,0.00000901,-0.00000527,-0.0000
 0330,-0.00005245,-0.00000099,-0.00000001,0.00000224,0.00000084,0.00000
 277,-0.00000277,0.00000055,0.00000187,0.00000343,-0.00000097,-0.000001
 36,-0.00000141,-0.00000368,0.00000736,-0.00000344,-0.00000220,0.000004
 20,0.00000213,-0.00000186,0.00000247,0.00000205,-0.00001135,0.00000784
 ,0.00000296,0.00001216,-0.00000189,-0.00001286,0.00002237,0.00001332,0
 .00002466,-0.00000440,-0.00001269,0.00002466,0.00000089,0.00000643,-0.
 00000280,0.00000253,0.00000325,0.00000364,0.00000799,-0.00001309,-0.00
 001923,0.00001578,0.00001249,-0.00000954,-0.00000529,-0.00000826,0.000
 00261,0.00000937,0.00004264,0.00002731,-0.00001021,0.00000085,0.000007
 74,0.00000867,0.00002232,-0.00002441,-0.00000989,-0.00000445,0.0000094
 5,0.00002045,0.00000263,-0.00001146,-0.00001239,0.00000128,0.00000337,
 -0.00000476,-0.00000421,-0.00000439,-0.00000037,-0.00000393,0.00000256
 ,0.00000088,-0.00000024,-0.00000635,-0.10668949,0.03015713,0.25741560,
 -0.00002052,-0.00006436,-0.00002604,-0.00017042,-0.00013114,0.00035895
 ,-0.00009369,0.00015141,-0.00002319,0.00000593,0.00003366,0.00000848,-
 0.00004044,0.00005985,0.00000347,0.00005391,0.00009342,-0.00013821,0.0
 0002503,0.00002452,0.00002321,0.00009612,-0.00010698,-0.00000829,0.000
 01298,-0.00002406,-0.00000851,0.00000776,-0.00006433,-0.00001562,0.000
 00026,0.00000065,-0.00000060,0.00000045,-0.00000021,0.00000090,-0.0000
 0095,-0.00000072,-0.00000044,-0.00000187,0.00000014,-0.00000225,-0.000
 02276,0.00005988,0.00001591,0.00000309,-0.00004579,-0.00000810,0.00003
 348,-0.00002438,-0.00000311,0.00000010,0.00000030,-0.00000062,-0.00000
 099,0.00000135,0.00000037,0.00000494,0.00000266,-0.00000377,0.00000179
 ,-0.00000785,0.00000064,-0.00000412,-0.00000422,0.00000367,-0.00000024
 ,0.00000028,0.00000007,-0.00000119,-0.00000056,0.00000019,0.00000307,0
 .00000554,0.00000005,0.00000025,0.00000069,0.00000073,0.00000017,-0.00
 000164,-0.00000119,-0.00000206,-0.00000138,0.00000062,0.00000286,0.000
 00213,0.00000034,-0.00000270,0.00000096,0.00000020,0.00000223,-0.00000
 231,0.00000160,0.00000036,-0.00000350,0.00000039,-0.00000190,0.0000014
 8,-0.00000100,-0.00000193,0.00000121,-0.00000083,0.00000108,0.00000476
 ,-0.00000132,0.00000098,0.00000017,0.00000229,0.00001874,-0.00000176,-
 0.00000885,-0.00000997,-0.00000135,-0.00000258,-0.00001192,0.00000007,
 0.00000494,-0.00000371,0.00000795,-0.00000171,-0.00000671,0.00001714,0
 .00000740,-0.00000730,-0.00001279,0.00001401,0.00001426,0.00001401,0.0
 0001506,0.00001945,-0.00001034,-0.00000506,-0.00002304,-0.00000796,0.0
 0000708,0.00000250,0.00000006,0.00000055,-0.00000322,-0.00000068,-0.00
 000395,-0.00000118,-0.00000053,-0.00000005,0.00000111,0.00000041,-0.00
 000071,-0.00000991,0.00001742,-0.00002148,0.00000514,-0.00001707,0.000
 00998,-0.00000018,-0.00002611,0.00001031,0.00007163,0.00006950,-0.0000
 6935,-0.00001800,-0.00008083,0.00003563,0.00001478,-0.00006888,0.00009
 277,-0.06676973,-0.03412271,0.06499152,0.00412190,0.00791731,-0.016376
 25,-0.00217683,0.00246456,0.00099334,0.00060470,-0.00032092,-0.0002168
 4,0.00047868,0.00147487,-0.00112392,-0.00000130,-0.00000646,0.00000087
 ,0.,-0.00000155,0.00000002,-0.00000004,0.00000037,0.00000082,0.0000285
 5,0.00001630,-0.00000069,0.00000384,0.00000048,0.00000163,0.00000099,-
 0.00000058,0.00000014,0.00000174,-0.00001401,-0.00001241,0.00000546,-0
 .00000458,0.00001026,0.00001839,0.00000145,-0.00001247,0.00000073,-0.0
 0000247,-0.00000042,-0.00000023,0.00000137,-0.00000284,0.00000428,-0.0
 0000115,0.00000302,-0.00000033,0.00000144,-0.00000099,0.00000056,-0.00
 000019,-0.00000026,-0.00000340,0.00000146,-0.00000337,0.00000256,-0.00
 000661,-0.00000976,0.00002434,-0.00000192,-0.00000306,0.00000128,-0.00
 000474,0.00001293,-0.00801688,-0.01224489,0.02584453,-0.00009075,0.002
 23638,-0.00366622,0.00050226,-0.00054869,0.00040355,0.00086489,-0.0007
 5880,-0.00024819,0.00000045,-0.00000022,-0.00000015,-0.00000023,-0.000
 00042,0.00000024,-0.00000026,-0.00000025,-0.00000029,0.00000033,-0.000
 00012,-0.00000037,0.00000005,-0.00000055,0.00000069,0.00000022,-0.0000
 0065,-0.00000008,0.00000053,-0.00000054,-0.00000046,-0.00000026,-0.000
 00127,0.00000123,-0.00000025,-0.00000134,0.00000213,-0.00000183,-0.000
 00131,-0.00000268,0.00000120,0.00000070,-0.00000202,-0.00000141,-0.000
 00088,0.00000044,-0.00000111,0.00000087,-0.00000049,-0.00000036,0.0000
 0055,0.00000262,0.00001182,-0.00000838,-0.00000808,-0.00000065,0.00000
 333,0.00000274,0.00000391,0.00000771,0.00000479,-0.00001084,0.00000280
 ,0.00000860,0.00000617,0.00001321,-0.00000804,0.00000447,0.00001416,-0
 .00001658,0.00000214,-0.00001510,0.00001048,-0.00000404,0.00000345,-0.
 00000318,-0.00000278,0.00000217,0.00000146,-0.00000027,0.00000297,-0.0
 0000216,-0.00000011,0.00000010,0.00000083,-0.00001657,-0.00000253,0.00
 000166,0.07046050,0.00007240,0.00029839,0.00004217,0.00017941,0.000609
 11,-0.00071685,0.00004201,-0.00011119,-0.00044092,-0.00010962,0.000009
 00,-0.00013968,0.00012420,-0.00000513,-0.00006003,-0.00010202,-0.00027
 344,0.00026034,-0.00006260,-0.00016287,-0.00004239,-0.00007569,0.00006
 408,0.00013663,-0.00000348,-0.00004706,0.00016665,0.00003650,0.0000240
 8,0.00007262,0.00000605,-0.00000083,0.00000247,-0.00000421,0.00000101,
 0.00000140,-0.00000985,-0.00000490,-0.00000378,-0.00000963,0.00000643,
 0.00000249,0.00009267,-0.00003293,0.00001044,-0.00004900,0.00000119,-0
 .00000943,-0.00009287,0.00001981,-0.00000616,-0.00000288,0.00000005,0.
 00000054,-0.00000852,0.00000273,0.00000587,0.00004559,0.00000843,-0.00
 005276,-0.00001968,-0.00000306,0.00003424,-0.00002997,-0.00002297,0.00
 007975,0.00000106,0.00000187,0.00000050,-0.00000211,0.00000002,-0.0000
 0120,-0.00000622,-0.00000245,0.00000313,-0.00000480,0.00000603,0.00000
 020,-0.00000222,0.00000212,-0.00000461,0.00004125,-0.00001186,0.000013
 12,0.00000243,0.00000926,0.00000227,-0.00002929,-0.00000470,-0.0000085
 7,0.00003109,-0.00001504,0.00001011,0.00001346,-0.00000594,-0.00000170
 ,-0.00000677,0.00001007,0.00000398,0.00000488,-0.00000074,0.00000386,-
 0.00000253,-0.00001414,0.00000055,0.00000834,-0.00000776,-0.00000733,-
 0.00006691,0.00010708,0.00002690,0.00009102,-0.00009323,-0.00000317,0.
 00003025,-0.00003980,-0.00000795,-0.00000367,-0.00000651,0.00000875,-0
 .00000665,-0.00001431,0.00000562,0.00004181,0.00002365,-0.00002622,0.0
 0000858,-0.00004861,0.00001072,-0.00006120,0.00001548,0.00000683,0.000
 05465,0.00004804,-0.00000669,0.00000056,0.00000933,-0.00000018,0.00000
 842,-0.00000176,0.00001364,-0.00000243,-0.00000132,-0.00000183,0.00001
 309,-0.00000015,0.00000065,-0.00004752,-0.00004133,-0.00003222,0.00005
 983,0.00007750,0.00006212,0.00003516,0.00006430,0.00001773,0.00010361,
 -0.00003041,-0.00001525,-0.00004458,0.00003174,0.00000756,-0.00012381,
 0.00008450,0.00001291,-0.03373398,-0.08905418,0.09064794,-0.00743068,-
 0.01271996,0.02377208,0.00431906,-0.00205128,-0.00305043,-0.00055772,0
 .00066235,0.00047568,-0.00072968,-0.00256867,0.00196046,0.00001577,-0.
 00000086,-0.00000439,0.00000511,0.00000365,-0.00000127,-0.00000914,0.0
 0000695,0.00000003,-0.00007284,-0.00002716,-0.00001657,-0.00000497,0.0
 0000027,-0.00000397,-0.00000347,-0.00000336,-0.00000145,-0.00000290,0.
 00000671,0.00000177,0.00000351,0.00000647,-0.00000361,0.00000670,-0.00
 002594,0.00001019,-0.00000241,0.00000148,0.00000093,-0.00000178,0.0000
 0034,-0.00000014,-0.00001406,0.00000512,-0.00001111,-0.00001554,0.0000
 0278,-0.00000033,0.00000007,-0.00000570,-0.00000280,-0.00002373,-0.000
 00115,-0.00000413,0.00000053,0.00000739,0.00000805,-0.00000754,-0.0000
 0075,-0.00000115,-0.00000449,0.00000765,0.00000062,-0.00198080,-0.0040
 0568,0.00562983,0.00689966,0.00959297,-0.01591905,-0.00073650,0.000441
 14,-0.00046771,-0.00012035,0.00133026,-0.00033506,0.00000105,0.0000001
 4,-0.00000228,0.00000047,-0.00000209,0.00000352,0.00000026,-0.00000103
 ,-0.00000383,0.00000036,0.00000133,0.00000322,0.00000204,-0.00000471,0
 .00000192,0.00000162,-0.00000263,-0.00000177,-0.00000053,0.00000071,-0
 .00000106,0.00000002,-0.00000142,-0.00000187,-0.00000053,0.00000712,0.
 00000215,0.00000253,0.00000534,0.00000259,-0.00000381,0.00000075,-0.00
 000308,0.00000597,-0.00000454,0.00000214,0.00000572,-0.00000271,-0.000
 00233,-0.00000152,0.00000416,0.00000136,-0.00004193,-0.00001090,0.0000
 3396,0.00000694,0.00000504,-0.00001094,-0.00001719,-0.00009074,-0.0000
 6343,0.00003261,-0.00000458,-0.00002703,-0.00001718,-0.00006699,0.0000
 6128,0.00001277,-0.00000180,-0.00000865,-0.00003140,0.00000669,0.00001
 985,0.00001506,-0.00000426,-0.00000684,0.00001177,0.00000539,0.0000100
 6,-0.00000021,0.00000147,0.00000099,0.00000030,0.00000014,0.00000769,0
 .00001343,0.00000528,-0.00000936,0.03404596,0.09801315,-0.00005451,-0.
 00023419,0.00000125,-0.00006729,-0.00051818,0.00035866,-0.00020196,-0.
 00025405,0.00082024,0.00014157,-0.00006591,0.00015072,-0.00010497,-0.0
 0006437,0.00005000,0.00005284,0.00016840,-0.00009983,0.00004105,0.0001
 4219,0.00000771,0.00001274,0.00007933,-0.00006310,-0.00001288,0.000116
 69,-0.00021963,-0.00006959,0.00007892,-0.00008416,-0.00000478,0.000000
 18,-0.00000270,0.00000255,-0.00000122,-0.00000005,0.00001026,0.0000049
 4,0.00000429,0.00001040,-0.00000484,-0.00000075,-0.00007596,-0.0000023
 9,-0.00001858,0.00004849,0.00002632,0.00001878,0.00007008,-0.00000497,
 0.00000550,0.00000360,-0.00000040,-0.00000004,0.00001245,-0.00000510,-
 0.00000722,-0.00006523,-0.00001509,0.00006998,0.00002370,0.00001553,-0
 .00004180,0.00004240,0.00003610,-0.00010498,-0.00000102,-0.00000237,-0
 .00000090,0.00000269,0.00000045,0.00000147,0.00000951,0.00000602,0.000
 00058,0.00000535,-0.00000788,-0.00000080,0.00000047,0.00000122,0.00000
 596,-0.00005153,0.00001936,-0.00001652,-0.00000764,-0.00001870,-0.0000
 0389,0.00004333,0.00000745,0.00001256,-0.00004416,0.00002136,-0.000013
 48,-0.00001650,0.00000632,-0.00000259,0.00000907,-0.00001083,-0.000001
 91,-0.00000513,0.00000087,-0.00000420,0.00000281,0.00001185,0.00000004
 ,-0.00000794,0.00000913,0.00000999,0.00005575,-0.00011569,-0.00001779,
 -0.00009302,0.00011203,-0.00000164,-0.00002358,0.00004159,0.00000226,-
 0.00001815,0.00003388,-0.00000398,0.00004734,0.00008327,-0.00002916,-0
 .00008470,-0.00002560,0.00003749,0.00002608,0.00002530,-0.00001364,0.0
 0005900,-0.00002540,-0.00000597,-0.00009586,-0.00009348,0.00003268,-0.
 00000923,-0.00001653,-0.00001390,-0.00000543,-0.00000182,0.00000673,0.
 00000210,0.00000230,0.00000435,-0.00001879,-0.00000831,-0.00000551,0.0
 0014978,0.00002811,0.00013240,-0.00012016,-0.00005478,-0.00016154,-0.0
 0007832,-0.00001370,-0.00006009,-0.00025951,-0.00004767,0.00008120,0.0
 0010071,0.00007511,-0.00005225,0.00020880,-0.00000164,-0.00010878,0.06
 397416,0.09132951,-0.22152267,0.00147845,0.00049403,-0.00398801,-0.000
 36505,-0.00115215,0.00058560,-0.00022725,0.00132436,-0.00041245,0.0000
 4460,0.00140803,-0.00046152,-0.00002136,-0.00000115,0.00000361,-0.0000
 0505,-0.00000243,0.00000033,0.00001045,-0.00000792,0.00000026,0.000105
 79,0.00002819,0.00000667,0.00000230,0.00000014,0.00000371,0.00000296,0
 .00000326,0.00000045,0.00001754,-0.00002732,-0.00002917,-0.00000073,-0
 .00002335,0.00001211,0.00006825,0.00002908,0.00001264,-0.00000136,-0.0
 0000372,0.00000060,0.00000471,-0.00000203,-0.00000034,0.00001097,-0.00
 000419,0.00000906,0.00001979,-0.00000218,0.00000068,0.00000057,0.00000
 543,0.00000288,0.00002857,-0.00001232,0.00000236,-0.00000907,0.0000026
 7,0.00000458,-0.00000165,-0.00000082,0.00000277,0.00000895,-0.00000124
 ,-0.00000919,-0.00080042,-0.00210853,0.00248309,0.00739423,0.01091916,
 -0.01823845,-0.00014875,0.00033471,0.00049973,-0.00032692,-0.00009341,
 -0.00000202,-0.00000176,0.00000025,0.00000286,-0.00000046,0.00000286,-
 0.00000490,0.,0.00000130,0.00000533,-0.00000079,-0.00000139,-0.0000037
 5,-0.00000251,0.00000597,-0.00000262,-0.00000208,0.00000321,0.00000228
 ,-0.00000004,-0.00000033,0.00000152,0.00001410,0.00002015,0.00000406,-
 0.00000174,-0.00000599,-0.00000665,-0.00000395,-0.00000564,-0.00000265
 ,0.00000376,-0.00000026,0.00000151,-0.00000616,0.00000522,-0.00000353,
 -0.00000440,0.00000018,0.00000167,0.00000299,-0.00000257,0.00000035,0.
 00003289,0.00002101,-0.00002828,-0.00000705,-0.00001007,0.00000878,0.0
 0001484,0.00008281,0.00004973,-0.00002372,0.00000307,0.00002055,0.0000
 1145,0.00005683,-0.00006141,-0.00002054,-0.00001310,0.00002714,0.00003
 517,0.00000846,-0.00003316,-0.00001441,0.00000133,0.00001119,-0.000010
 83,-0.00000778,-0.00000712,0.00000088,-0.00000576,0.00000235,-0.000000
 22,-0.00000010,-0.00001042,-0.00003588,-0.00000408,0.00002052,-0.07084
 127,-0.10213048,0.24038388\\0.00031341,0.00045174,0.00068653,-0.001858
 31,0.00096767,0.00202164,0.00007528,-0.00138249,-0.00138860,0.00005135
 ,-0.00066127,0.00104051,0.00066797,0.00022125,-0.00032679,0.00004482,-
 0.00100857,0.00008985,-0.00006460,-0.00022514,-0.00041042,0.00137400,0
 .00071621,-0.00068247,-0.00044901,-0.00020738,0.00073601,-0.00035766,0
 .00056952,-0.00049661,0.00001012,0.00002490,0.00003761,0.00002529,-0.0
 0005507,-0.00003555,-0.00000466,-0.00000008,0.00000111,-0.00006802,0.0
 0005179,0.00002183,-0.00005166,0.00019280,0.00007263,0.00016141,-0.000
 18795,-0.00000120,-0.00019738,-0.00027616,-0.00001841,-0.00001319,-0.0
 0004658,0.00001288,-0.00002997,0.00004984,-0.00002998,0.00015410,0.000
 05749,-0.00001073,0.00022858,0.00004565,-0.00009862,-0.00028291,0.0001
 2479,0.00052132,-0.00000016,-0.00001148,0.00000313,0.00001487,-0.00006
 756,0.00002502,0.00005677,-0.00010785,0.00001290,0.00011015,0.00006766
 ,-0.00002124,-0.00020900,0.00029540,0.00012995,0.00000352,-0.00001934,
 -0.00000487,0.00009146,-0.00011488,-0.00001400,0.00008034,-0.00000164,
 -0.00004834,0.00001489,0.00005667,0.00001005,-0.00007786,-0.00005484,-
 0.00000663,0.00003248,-0.00000063,0.00003556,0.00000777,0.00000333,-0.
 00003023,-0.00000327,-0.00008815,0.00001972,0.00002205,0.00013704,-0.0
 0000584,-0.00017035,-0.00020991,0.00011685,-0.00015285,0.00035587,-0.0
 0004398,0.00009201,0.00009076,-0.00017785,-0.00001601,0.00000413,-0.00
 002004,-0.00000321,0.00007844,-0.00004725,-0.00005115,-0.00003588,0.00
 002721,0.00002483,0.00006421,-0.00000754,0.00003494,-0.00000888,-0.000
 09501,-0.00006539,-0.00004681,0.00013822,-0.00000387,0.00000019,-0.000
 00073,0.00000416,0.00001658,-0.00000273,-0.00000200,-0.00000245,-0.000
 00851,-0.00001899,0.00004563,-0.00004393,0.00021181,-0.00024189,0.0002
 5142,-0.00034137,-0.00022372,-0.00034443,0.00000237,0.00036463,-0.0000
 4931,-0.00024137,-0.00024134,0.00015598,-0.00004756,0.00028759,-0.0000
 2032,0.00021411,-0.00037556,-0.00025312,-0.00000098,0.00002481,-0.0000
 7159,-0.00002746,-0.00003580,0.00010810,-0.00031642,-0.00088466,0.0002
 1223,0.00040147,0.00087142,-0.00004981,0.00071924,0.00078907,-0.000993
 34,-0.00004111,0.00001653,-0.00006595,0.00000309,0.00000589,0.00001728
 ,0.00006572,0.00003227,-0.00008574,0.00022839,0.00002142,0.00009920,-0
 .00001155,-0.00000749,0.00000721,0.00001707,-0.00000308,-0.00000112,-0
 .00000792,-0.00001379,0.00000414,0.00001860,-0.00000681,-0.00002033,-0
 .00003075,-0.00007609,0.00001303,-0.00001007,-0.00003665,0.00001638,0.
 00005244,0.00000358,-0.00003619,-0.00002681,-0.00001435,-0.00005113,-0
 .00002703,-0.00004967,-0.00002207,-0.00001977,-0.00000256,0.00000560,0
 .00001854,0.00000999,0.00003155,-0.00001316,0.00000466,0.00000706,0.00
 001016,-0.00000289,0.00000478,-0.00000246,-0.00001395,0.00001087,-0.00
 000087,0.00000387,0.00000003,-0.00002702,0.00004625,-0.00001065,-0.000
 01687,-0.00001343,0.00001106,-0.00003469,-0.00001477,0.00001614,-0.000
 02251,0.00000122,-0.00001660,-0.00003072,-0.00001231,-0.00000008,0.000
 03195,0.00001406,0.00001530,0.00000745,-0.00001952,0.00001278,-0.00000
 132,-0.00000007,-0.00003315,-0.00000134,0.00001501,-0.00000976,0.00000
 324,-0.00011891,0.00002282,-0.00001966,0.00002658,-0.00000241,-0.00000
 905,-0.00002526,-0.00001900,-0.00003304,-0.00003949,-0.00001784,-0.000
 12467,0.00005956,0.00001077,-0.00001397,0.00000612,-0.00000595,-0.0000
 0165,0.00000667,0.00000119,0.00002648,0.00002064,-0.00002645,0.0000379
 5,-0.00009063,-0.00003656,-0.00003172,-0.00007275,0.00000541,-0.000154
 56,0.00010994,0.00000625,-0.00002489,0.00019179,-0.00012273,-0.0000040
 3,-0.00003402,-0.00019871,0.00003947,-0.00003930,-0.00001797,-0.000009
 70,-0.00000923,0.00000147,0.00005050,0.00001546,-0.00002614,0.00001263
 ,-0.00003024,-0.00010171,-0.00000461,-0.00002519,-0.00003294,0.0000138
 4,-0.00000146,0.00001104,-0.00000576,-0.00001009,-0.00000433,0.0000069
 2,-0.00003064,0.00000587\\\@


 WE STILL HAVE JUDGEMENT HERE,
 THAT WE TEACH BUT BLOODY INSTRUCTIONS,
 WHICH, BEING TAUGHT,
 RETURN TO PLAGUE THE INVENTOR.
           MACBETH ACT I, SCENE VII
 Job cpu time:      18 days  5 hours 37 minutes 41.4 seconds.
 Elapsed time:       0 days 18 hours 19 minutes 36.1 seconds.
 File lengths (MBytes):  RWF=  75788 Int=      0 D2E=      0 Chk=    416 Scr=      1
 Normal termination of Gaussian 16 at Mon Feb  4 10:12:38 2019.
real 65985.50
user 1572124.90
sys 3336.61
Machine:
brown-a325
brown-a325
brown-a325
brown-a325
brown-a325
brown-a325
brown-a325
brown-a325
brown-a325
brown-a325
brown-a325
brown-a325
brown-a325
brown-a325
brown-a325
brown-a325
brown-a325
brown-a325
brown-a325
brown-a325
brown-a325
brown-a325
brown-a325
brown-a325
