 Entering Gaussian System, Link 0=/apps/rhel6/g09-E.01/g09/g09
 Initial command:
 /apps/rhel6/g09-E.01/g09/l1.exe "/scratch/halstead/y/ypushkar/gaussian/Gau-35552.inp" -scrdir="/scratch/halstead/y/ypushkar/gaussian/"
 Entering Link 1 = /apps/rhel6/g09-E.01/g09/l1.exe PID=     35553.
  
 Copyright (c) 1988,1990,1992,1993,1995,1998,2003,2009,2015,
            Gaussian, Inc.  All Rights Reserved.
  
 This is part of the Gaussian(R) 09 program.  It is based on
 the Gaussian(R) 03 system (copyright 2003, Gaussian, Inc.),
 the Gaussian(R) 98 system (copyright 1998, Gaussian, Inc.),
 the Gaussian(R) 94 system (copyright 1995, Gaussian, Inc.),
 the Gaussian 92(TM) system (copyright 1992, Gaussian, Inc.),
 the Gaussian 90(TM) system (copyright 1990, Gaussian, Inc.),
 the Gaussian 88(TM) system (copyright 1988, Gaussian, Inc.),
 the Gaussian 86(TM) system (copyright 1986, Carnegie Mellon
 University), and the Gaussian 82(TM) system (copyright 1983,
 Carnegie Mellon University). Gaussian is a federally registered
 trademark of Gaussian, Inc.
  
 This software contains proprietary and confidential information,
 including trade secrets, belonging to Gaussian, Inc.
  
 This software is provided under written license and may be
 used, copied, transmitted, or stored only in accord with that
 written license.
  
 The following legend is applicable only to US Government
 contracts under FAR:
  
                    RESTRICTED RIGHTS LEGEND
  
 Use, reproduction and disclosure by the US Government is
 subject to restrictions as set forth in subparagraphs (a)
 and (c) of the Commercial Computer Software - Restricted
 Rights clause in FAR 52.227-19.
  
 Gaussian, Inc.
 340 Quinnipiac St., Bldg. 40, Wallingford CT 06492
  
  
 ---------------------------------------------------------------
 Warning -- This program may not be used in any manner that
 competes with the business of Gaussian, Inc. or will provide
 assistance to any competitor of Gaussian, Inc.  The licensee
 of this program is prohibited from giving any competitor of
 Gaussian, Inc. access to this program.  By using this program,
 the user acknowledges that Gaussian, Inc. is engaged in the
 business of creating and licensing software in the field of
 computational chemistry and represents and warrants to the
 licensee that it is not a competitor of Gaussian, Inc. and that
 it will not use this program in any manner prohibited above.
 ---------------------------------------------------------------
  

 Cite this work as:
 Gaussian 09, Revision E.01,
 M. J. Frisch, G. W. Trucks, H. B. Schlegel, G. E. Scuseria, 
 M. A. Robb, J. R. Cheeseman, G. Scalmani, V. Barone, B. Mennucci, 
 G. A. Petersson, H. Nakatsuji, M. Caricato, X. Li, H. P. Hratchian, 
 A. F. Izmaylov, J. Bloino, G. Zheng, J. L. Sonnenberg, M. Hada, 
 M. Ehara, K. Toyota, R. Fukuda, J. Hasegawa, M. Ishida, T. Nakajima, 
 Y. Honda, O. Kitao, H. Nakai, T. Vreven, J. A. Montgomery, Jr., 
 J. E. Peralta, F. Ogliaro, M. Bearpark, J. J. Heyd, E. Brothers, 
 K. N. Kudin, V. N. Staroverov, T. Keith, R. Kobayashi, J. Normand, 
 K. Raghavachari, A. Rendell, J. C. Burant, S. S. Iyengar, J. Tomasi, 
 M. Cossi, N. Rega, J. M. Millam, M. Klene, J. E. Knox, J. B. Cross, 
 V. Bakken, C. Adamo, J. Jaramillo, R. Gomperts, R. E. Stratmann, 
 O. Yazyev, A. J. Austin, R. Cammi, C. Pomelli, J. W. Ochterski, 
 R. L. Martin, K. Morokuma, V. G. Zakrzewski, G. A. Voth, 
 P. Salvador, J. J. Dannenberg, S. Dapprich, A. D. Daniels, 
 O. Farkas, J. B. Foresman, J. V. Ortiz, J. Cioslowski, 
 and D. J. Fox, Gaussian, Inc., Wallingford CT, 2013.
 
 ******************************************
 Gaussian 09:  ES64L-G09RevE.01 30-Nov-2015
                16-Dec-2020 
 ******************************************
 %chk=OEC_Shen_S3OO_try_spin3.chk
 %mem=50GB
 %nprocshared=24
 Will use up to   24 processors via shared memory.
 ---------------------------------------
 # freq(Raman) def2tzvp ubp86 guess=read
 ---------------------------------------
 1/10=4,30=1,38=1/1,3;
 2/12=2,17=6,18=5,40=1/2;
 3/5=44,7=101,11=2,16=1,25=1,30=1,71=2,74=404,116=2,140=1/1,2,3;
 4/5=1/1;
 5/5=2,38=6,98=1/2;
 8/6=4,10=90,11=11/1;
 10/13=10,15=4/2;
 11/6=3,8=1,9=11,15=111,16=1/1,2,10;
 10/6=1/2;
 6/7=2,8=2,9=2,10=2,18=1,28=1/1;
 7/8=1,10=1,25=1/1,2,3,16;
 1/10=4,30=1/3;
 99//99;
 -------------------
 Title Card Required
 -------------------
 Symbolic Z-matrix:
 Charge = -1 Multiplicity = 3
 C                     6.86973   2.2926   -1.58137 
 C                     5.60726   1.7407   -0.91418 
 O                     5.64718   0.59622  -0.41049 
 O                     4.57594   2.52734  -0.89506 
 C                     0.33902  -2.41612   5.50302 
 C                     0.5445   -2.0141    4.03848 
 O                     1.63348  -2.24979   3.47583 
 O                    -0.49258  -1.43383   3.51628 
 C                    -3.87034   4.99072   1.41824 
 O                    -4.82729   4.28944   1.06024 
 C                    -2.35128   4.22971   3.34124 
 C                    -2.38959   2.81575   2.83295 
 C                    -1.37089   1.90515   2.66316 
 C                    -3.20363   0.88735   2.06986 
 N                    -1.89195   0.71634   2.19159 
 N                    -3.04286   5.62125   0.53891 
 C                    -2.08372   4.08241  -1.17522 
 C                    -0.60658   4.3705   -0.89567 
 C                     0.29097   3.14071  -0.72532 
 O                    -0.19508   2.01372  -1.06753 
 O                     1.43984   3.36553  -0.24364 
 C                    -5.24891  -0.72257  -2.83262 
 C                    -4.0064   -1.19404  -2.44718 
 N                    -5.46647   0.52993  -2.28442 
 C                    -4.3704    0.80043  -1.58562 
 N                    -3.45621  -0.20951  -1.65157 
 C                    -4.1414   -3.62882   0.56905 
 C                    -2.82259  -2.85814   0.51069 
 O                    -2.03843  -3.14495  -0.45438 
 O                    -2.63199  -1.97236   1.4017 
 C                     1.58529  -4.61397  -0.44506 
 O                     2.33666  -4.03423   0.36943 
 O                     0.542    -4.11919  -1.0322 
 Ca                    2.38813  -1.80862   1.23603 
 O                     0.09599  -2.43884   1.06366 
 O                     1.39011  -1.52338  -1.10675 
 O                    -0.8395   -0.59431  -0.30892 
 O                     2.32057   1.01277  -1.63472 
 O(Iso=18)             1.58402   0.45079   0.5805 
 O(Iso=18)             0.87168   0.17744   1.81399 
 Mn                   -0.7601   -0.95171   1.61691 
 Mn                   -0.20074  -2.33663  -0.73565 
 Mn                    0.77235   0.22399  -1.11857 
 Mn                    2.88798   1.85168  -0.08333 
 O                     4.07604  -1.68777  -0.61412 
 O                     3.46373   2.17842   1.70261 
 O                     4.1832   -0.37489   2.14855 
 C                    -0.88498  -1.11309  -4.83381 
 C                    -0.463    -1.10607  -3.36959 
 O                    -0.705    -2.14872  -2.68069 
 O                     0.07016  -0.02616  -2.94624 
 H                     7.58686   2.48251  -0.76307 
 H                     7.30252   1.46391  -2.16289 
 H                     0.0541   -1.50251   6.05085 
 H                    -0.5512   -3.06598   5.53575 
 H                    -1.39156   4.66545   3.02228 
 H                    -2.32785   4.2364    4.4455 
 H                    -0.30175   2.00919   2.8223 
 H                    -3.8977    0.14128   1.69856 
 H                    -2.21833   3.76759  -2.22105 
 H                    -2.41222   3.23295  -0.55839 
 H                    -0.15912   4.97474  -1.70328 
 H                    -0.47477   4.96019   0.02668 
 H                    -2.23303   6.09784   0.92586 
 H                    -3.47034  -2.11579  -2.64862 
 H                    -2.53105  -0.25482  -1.18841 
 H                    -4.19359   1.71315  -1.02273 
 H                    -4.49491  -3.60372   1.6102 
 H                    -4.86169  -3.03708  -0.02409 
 H                    -0.27134  -0.36796  -5.35942 
 H                    -1.92234  -0.73372  -4.84981 
 H                     4.58256  -0.84186  -0.69867 
 H                     3.32274  -1.60853  -1.24381 
 H                     4.24656   2.75579   1.73032 
 H                     3.86993   0.58757   2.17002 
 H                     4.90022  -0.31704   1.48472 
 C                    -6.27044  -1.38446  -3.70399 
 H                    -7.22434  -1.51925  -3.16856 
 H                    -6.4864   -0.77633  -4.59747 
 H                    -5.92253  -2.37239  -4.03847 
 C                    -0.81425  -2.48685  -5.50412 
 H                    -1.42411  -3.22163  -4.96224 
 H                    -1.17767  -2.42648  -6.54124 
 H                     0.2185   -2.86455  -5.52591 
 C                     6.68857   3.54243  -2.44238 
 H                     6.26373   4.36995  -1.85731 
 H                     7.65514   3.87249  -2.85461 
 H                     6.00983   3.34727  -3.28535 
 C                     1.54616  -3.09442   6.14747 
 H                     2.42748  -2.43857   6.12264 
 H                     1.33332  -3.35251   7.19692 
 H                     1.81343  -4.01581   5.61148 
 C                     1.90649  -6.04843  -0.8477 
 H                     1.03048  -6.55137  -1.27454 
 H                     2.70416  -6.02442  -1.6064 
 H                     2.28763  -6.60036   0.02145 
 C                    -4.06787  -5.05858   0.02864 
 H                    -5.05996  -5.5349    0.05861 
 H                    -3.7067   -5.06651  -1.00789 
 H                    -3.376    -5.67236   0.62413 
 C                    -3.00686   5.27744  -0.88823 
 H                    -2.69033   6.17361  -1.44536 
 H                    -4.03817   5.04027  -1.18107 
 C                    -3.52197   5.14517   2.89772 
 H                    -4.43486   4.89678   3.45705 
 H                    -3.26429   6.18887   3.13983 
 N                    -3.54871   2.14013   2.46458 
 H                    -4.43231   2.60667   2.23847 
 O                     3.04169   2.98665  -3.57453 
 H                     3.6424    3.31673  -2.88104 
 H                     2.65599   2.19965  -3.11883 
 

 GradGradGradGradGradGradGradGradGradGradGradGradGradGradGradGradGradGrad
 Berny optimization.
 Initialization pass.
 Trust Radius=3.00D-01 FncErr=1.00D-07 GrdErr=1.00D-07
 Number of steps in this run=      2 maximum allowed number of steps=      2.
 GradGradGradGradGradGradGradGradGradGradGradGradGradGradGradGradGradGrad

 Stoichiometry    C28H50CaMn4N5O23(1-,3)
 Framework group  C1[X(C28H50CaMn4N5O23)]
 Deg. of freedom   327
 Full point group                 C1      NOp   1
 Largest Abelian subgroup         C1      NOp   1
 Largest concise Abelian subgroup C1      NOp   1
                         Standard orientation:                         
 ---------------------------------------------------------------------
 Center     Atomic      Atomic             Coordinates (Angstroms)
 Number     Number       Type             X           Y           Z
 ---------------------------------------------------------------------
      1          6           0        6.869732    2.292598   -1.581368
      2          6           0        5.607259    1.740699   -0.914179
      3          8           0        5.647175    0.596221   -0.410486
      4          8           0        4.575942    2.527338   -0.895063
      5          6           0        0.339018   -2.416122    5.503019
      6          6           0        0.544501   -2.014104    4.038484
      7          8           0        1.633480   -2.249792    3.475828
      8          8           0       -0.492582   -1.433832    3.516278
      9          6           0       -3.870337    4.990718    1.418235
     10          8           0       -4.827290    4.289441    1.060242
     11          6           0       -2.351284    4.229712    3.341243
     12          6           0       -2.389586    2.815752    2.832949
     13          6           0       -1.370888    1.905154    2.663158
     14          6           0       -3.203634    0.887350    2.069861
     15          7           0       -1.891954    0.716340    2.191586
     16          7           0       -3.042858    5.621251    0.538912
     17          6           0       -2.083723    4.082412   -1.175223
     18          6           0       -0.606578    4.370503   -0.895669
     19          6           0        0.290969    3.140707   -0.725323
     20          8           0       -0.195077    2.013720   -1.067532
     21          8           0        1.439835    3.365527   -0.243640
     22          6           0       -5.248913   -0.722565   -2.832619
     23          6           0       -4.006397   -1.194041   -2.447178
     24          7           0       -5.466471    0.529929   -2.284424
     25          6           0       -4.370402    0.800431   -1.585618
     26          7           0       -3.456214   -0.209510   -1.651574
     27          6           0       -4.141405   -3.628820    0.569048
     28          6           0       -2.822590   -2.858142    0.510687
     29          8           0       -2.038431   -3.144952   -0.454376
     30          8           0       -2.631994   -1.972360    1.401699
     31          6           0        1.585292   -4.613970   -0.445062
     32          8           0        2.336656   -4.034232    0.369430
     33          8           0        0.542001   -4.119191   -1.032204
     34         20           0        2.388129   -1.808615    1.236031
     35          8           0        0.095990   -2.438837    1.063656
     36          8           0        1.390112   -1.523380   -1.106749
     37          8           0       -0.839495   -0.594311   -0.308919
     38          8           0        2.320567    1.012771   -1.634719
     39          8           0        1.584016    0.450791    0.580495
     40          8           0        0.871677    0.177436    1.813993
     41         25           0       -0.760097   -0.951708    1.616911
     42         25           0       -0.200742   -2.336626   -0.735651
     43         25           0        0.772345    0.223991   -1.118571
     44         25           0        2.887984    1.851678   -0.083329
     45          8           0        4.076035   -1.687768   -0.614120
     46          8           0        3.463727    2.178422    1.702609
     47          8           0        4.183202   -0.374894    2.148554
     48          6           0       -0.884977   -1.113087   -4.833812
     49          6           0       -0.463004   -1.106073   -3.369589
     50          8           0       -0.704996   -2.148722   -2.680688
     51          8           0        0.070157   -0.026162   -2.946243
     52          1           0        7.586862    2.482512   -0.763070
     53          1           0        7.302520    1.463905   -2.162894
     54          1           0        0.054100   -1.502508    6.050854
     55          1           0       -0.551195   -3.065984    5.535746
     56          1           0       -1.391559    4.665452    3.022275
     57          1           0       -2.327851    4.236401    4.445503
     58          1           0       -0.301750    2.009188    2.822300
     59          1           0       -3.897701    0.141279    1.698563
     60          1           0       -2.218330    3.767590   -2.221052
     61          1           0       -2.412215    3.232952   -0.558386
     62          1           0       -0.159115    4.974744   -1.703282
     63          1           0       -0.474766    4.960186    0.026675
     64          1           0       -2.233028    6.097836    0.925860
     65          1           0       -3.470344   -2.115792   -2.648623
     66          1           0       -2.531053   -0.254824   -1.188412
     67          1           0       -4.193589    1.713150   -1.022732
     68          1           0       -4.494907   -3.603719    1.610197
     69          1           0       -4.861687   -3.037083   -0.024090
     70          1           0       -0.271338   -0.367959   -5.359420
     71          1           0       -1.922340   -0.733724   -4.849806
     72          1           0        4.582563   -0.841862   -0.698667
     73          1           0        3.322741   -1.608526   -1.243813
     74          1           0        4.246561    2.755787    1.730322
     75          1           0        3.869930    0.587573    2.170024
     76          1           0        4.900217   -0.317036    1.484717
     77          6           0       -6.270442   -1.384455   -3.703989
     78          1           0       -7.224341   -1.519249   -3.168556
     79          1           0       -6.486402   -0.776327   -4.597470
     80          1           0       -5.922532   -2.372389   -4.038473
     81          6           0       -0.814253   -2.486846   -5.504123
     82          1           0       -1.424109   -3.221628   -4.962242
     83          1           0       -1.177669   -2.426480   -6.541237
     84          1           0        0.218499   -2.864550   -5.525910
     85          6           0        6.688567    3.542428   -2.442384
     86          1           0        6.263734    4.369949   -1.857307
     87          1           0        7.655143    3.872488   -2.854607
     88          1           0        6.009832    3.347269   -3.285347
     89          6           0        1.546164   -3.094423    6.147472
     90          1           0        2.427484   -2.438568    6.122641
     91          1           0        1.333322   -3.352510    7.196924
     92          1           0        1.813430   -4.015805    5.611475
     93          6           0        1.906494   -6.048428   -0.847702
     94          1           0        1.030483   -6.551370   -1.274538
     95          1           0        2.704163   -6.024425   -1.606403
     96          1           0        2.287627   -6.600360    0.021452
     97          6           0       -4.067865   -5.058580    0.028641
     98          1           0       -5.059964   -5.534902    0.058609
     99          1           0       -3.706701   -5.066509   -1.007889
    100          1           0       -3.375997   -5.672360    0.624132
    101          6           0       -3.006862    5.277437   -0.888228
    102          1           0       -2.690328    6.173609   -1.445357
    103          1           0       -4.038165    5.040266   -1.181070
    104          6           0       -3.521967    5.145172    2.897717
    105          1           0       -4.434862    4.896782    3.457052
    106          1           0       -3.264285    6.188871    3.139828
    107          7           0       -3.548712    2.140133    2.464575
    108          1           0       -4.432307    2.606670    2.238472
    109          8           0        3.041687    2.986645   -3.574534
    110          1           0        3.642398    3.316727   -2.881044
    111          1           0        2.655991    2.199645   -3.118826
 ---------------------------------------------------------------------
 Rotational constants (GHZ):      0.0394243      0.0351506      0.0299577
 Standard basis: def2TZVP (5D, 7F)
 There are  2563 symmetry adapted cartesian basis functions of A   symmetry.
 There are  2252 symmetry adapted basis functions of A   symmetry.
  2252 basis functions,  3741 primitive gaussians,  2563 cartesian basis functions
   280 alpha electrons      278 beta electrons
       nuclear repulsion energy     16361.2877018018 Hartrees.
 NAtoms=  111 NActive=  111 NUniq=  111 SFac= 1.00D+00 NAtFMM=   60 NAOKFM=T Big=T
 Integral buffers will be    131072 words long.
 Raffenetti 2 integral format.
 Two-electron integral symmetry is turned on.
 One-electron integrals computed using PRISM.
   1 Symmetry operations used in ECPInt.
 ECPInt:  NShTT=  396495 NPrTT= 1277675 LenC2=  267910 LenP2D=  533435.
 LDataN:  DoStor=T MaxTD1= 6 Len=  172
 NBasis=  2252 RedAO= T EigKep=  3.44D-05  NBF=  2252
 NBsUse=  2252 1.00D-06 EigRej= -1.00D+00 NBFU=  2252
 Initial guess from the checkpoint file:  "OEC_Shen_S3OO_try_spin3.chk"
 B after Tr=     0.000000    0.000000    0.000000
         Rot=    1.000000    0.000000    0.000000    0.000000 Ang=   0.00 deg.
 Initial guess <Sx>= 0.0000 <Sy>= 0.0000 <Sz>= 1.0000 <S**2>= 7.4836 S= 2.2809
 Requested convergence on RMS density matrix=1.00D-08 within 128 cycles.
 Requested convergence on MAX density matrix=1.00D-06.
 Requested convergence on             energy=1.00D-06.
 No special actions if energy rises.
 SCF Done:  E(UB-P86) =  -8385.75076551     A.U. after    3 cycles
            NFock=  3  Conv=0.73D-09     -V/T= 2.0028
 <Sx>= 0.0000 <Sy>= 0.0000 <Sz>= 1.0000 <S**2>= 7.4836 S= 2.2809
 <L.S>= 0.000000000000E+00
 Annihilation of the first spin contaminant:
 S**2 before annihilation     7.4836,   after    21.3986
 Range of M.O.s used for correlation:     1  2252
 NBasis=  2252 NAE=   280 NBE=   278 NFC=     0 NFV=     0
 NROrb=   2252 NOA=   280 NOB=   278 NVA=  1972 NVB=  1974

 **** Warning!!: The largest alpha MO coefficient is  0.22259953D+02


 **** Warning!!: The smallest alpha delta epsilon is  0.16846923D-01


 **** Warning!!: The largest beta MO coefficient is  0.22935476D+02


 **** Warning!!: The smallest beta delta epsilon is  0.63328574D-01

          Differentiating once with respect to electric field.
                with respect to dipole field.
          Electric field/nuclear overlap derivatives assumed to be zero.
          There are     3 degrees of freedom in the 1st order CPHF.  IDoFFX=0 NUNeed=     3.
      3 vectors produced by pass  0 Test12= 3.67D-11 3.33D-08 XBig12= 8.46D+03 6.10D+01.
 AX will form     3 AO Fock derivatives at one time.
      3 vectors produced by pass  1 Test12= 3.67D-11 3.33D-08 XBig12= 8.38D+04 9.47D+01.
      3 vectors produced by pass  2 Test12= 3.67D-11 3.33D-08 XBig12= 4.85D+05 1.71D+02.
      3 vectors produced by pass  3 Test12= 3.67D-11 3.33D-08 XBig12= 9.83D+05 1.31D+02.
      3 vectors produced by pass  4 Test12= 3.67D-11 3.33D-08 XBig12= 2.52D+06 1.85D+02.
      3 vectors produced by pass  5 Test12= 3.67D-11 3.33D-08 XBig12= 3.97D+06 2.19D+02.
      3 vectors produced by pass  6 Test12= 3.67D-11 3.33D-08 XBig12= 6.72D+06 4.96D+02.
      3 vectors produced by pass  7 Test12= 3.67D-11 3.33D-08 XBig12= 1.11D+07 5.98D+02.
      3 vectors produced by pass  8 Test12= 3.67D-11 3.33D-08 XBig12= 1.06D+07 6.16D+02.
      3 vectors produced by pass  9 Test12= 3.67D-11 3.33D-08 XBig12= 1.32D+07 4.22D+02.
      3 vectors produced by pass 10 Test12= 3.67D-11 3.33D-08 XBig12= 1.30D+07 4.84D+02.
      3 vectors produced by pass 11 Test12= 3.67D-11 3.33D-08 XBig12= 1.20D+07 2.32D+02.
      3 vectors produced by pass 12 Test12= 3.67D-11 3.33D-08 XBig12= 1.17D+07 4.36D+02.
      3 vectors produced by pass 13 Test12= 3.67D-11 3.33D-08 XBig12= 9.52D+06 2.96D+02.
      3 vectors produced by pass 14 Test12= 3.67D-11 3.33D-08 XBig12= 8.71D+06 3.46D+02.
      3 vectors produced by pass 15 Test12= 3.67D-11 3.33D-08 XBig12= 9.93D+06 4.64D+02.
      3 vectors produced by pass 16 Test12= 3.67D-11 3.33D-08 XBig12= 6.99D+06 2.98D+02.
      3 vectors produced by pass 17 Test12= 3.67D-11 3.33D-08 XBig12= 3.70D+06 2.10D+02.
      3 vectors produced by pass 18 Test12= 3.67D-11 3.33D-08 XBig12= 2.17D+06 1.89D+02.
      3 vectors produced by pass 19 Test12= 3.67D-11 3.33D-08 XBig12= 1.26D+06 1.79D+02.
      3 vectors produced by pass 20 Test12= 3.67D-11 3.33D-08 XBig12= 7.32D+05 1.45D+02.
      3 vectors produced by pass 21 Test12= 3.67D-11 3.33D-08 XBig12= 3.57D+05 8.47D+01.
      3 vectors produced by pass 22 Test12= 3.67D-11 3.33D-08 XBig12= 1.98D+05 6.14D+01.
      3 vectors produced by pass 23 Test12= 3.67D-11 3.33D-08 XBig12= 1.06D+05 3.58D+01.
      3 vectors produced by pass 24 Test12= 3.67D-11 3.33D-08 XBig12= 5.11D+04 3.02D+01.
      3 vectors produced by pass 25 Test12= 3.67D-11 3.33D-08 XBig12= 2.67D+04 1.47D+01.
      3 vectors produced by pass 26 Test12= 3.67D-11 3.33D-08 XBig12= 1.03D+04 8.96D+00.
      3 vectors produced by pass 27 Test12= 3.67D-11 3.33D-08 XBig12= 2.60D+03 4.57D+00.
      3 vectors produced by pass 28 Test12= 3.67D-11 3.33D-08 XBig12= 7.51D+02 3.18D+00.
      3 vectors produced by pass 29 Test12= 3.67D-11 3.33D-08 XBig12= 3.64D+02 2.74D+00.
      3 vectors produced by pass 30 Test12= 3.67D-11 3.33D-08 XBig12= 1.51D+02 1.55D+00.
      3 vectors produced by pass 31 Test12= 3.67D-11 3.33D-08 XBig12= 5.77D+01 8.55D-01.
      3 vectors produced by pass 32 Test12= 3.67D-11 3.33D-08 XBig12= 1.93D+01 5.02D-01.
      3 vectors produced by pass 33 Test12= 3.67D-11 3.33D-08 XBig12= 4.40D+00 1.88D-01.
      3 vectors produced by pass 34 Test12= 3.67D-11 3.33D-08 XBig12= 1.21D+00 1.01D-01.
      3 vectors produced by pass 35 Test12= 3.67D-11 3.33D-08 XBig12= 4.09D-01 6.61D-02.
      3 vectors produced by pass 36 Test12= 3.67D-11 3.33D-08 XBig12= 8.43D-02 2.74D-02.
      3 vectors produced by pass 37 Test12= 3.67D-11 3.33D-08 XBig12= 1.41D-02 1.02D-02.
      3 vectors produced by pass 38 Test12= 3.67D-11 3.33D-08 XBig12= 3.57D-03 3.70D-03.
      3 vectors produced by pass 39 Test12= 3.67D-11 3.33D-08 XBig12= 9.75D-04 2.89D-03.
      3 vectors produced by pass 40 Test12= 3.67D-11 3.33D-08 XBig12= 1.83D-04 1.89D-03.
      3 vectors produced by pass 41 Test12= 3.67D-11 3.33D-08 XBig12= 2.90D-05 6.30D-04.
      3 vectors produced by pass 42 Test12= 3.67D-11 3.33D-08 XBig12= 6.35D-06 1.60D-04.
      3 vectors produced by pass 43 Test12= 3.67D-11 3.33D-08 XBig12= 2.25D-06 1.21D-04.
      3 vectors produced by pass 44 Test12= 3.67D-11 3.33D-08 XBig12= 3.93D-07 5.49D-05.
      3 vectors produced by pass 45 Test12= 3.67D-11 3.33D-08 XBig12= 6.31D-08 2.78D-05.
      3 vectors produced by pass 46 Test12= 3.67D-11 3.33D-08 XBig12= 1.08D-08 9.95D-06.
      3 vectors produced by pass 47 Test12= 3.67D-11 3.33D-08 XBig12= 2.19D-09 5.52D-06.
      3 vectors produced by pass 48 Test12= 3.67D-11 3.33D-08 XBig12= 6.19D-10 2.08D-06.
      3 vectors produced by pass 49 Test12= 3.67D-11 3.33D-08 XBig12= 9.62D-11 8.61D-07.
      3 vectors produced by pass 50 Test12= 3.67D-11 3.33D-08 XBig12= 1.30D-11 3.11D-07.
      3 vectors produced by pass 51 Test12= 3.67D-11 3.33D-08 XBig12= 1.98D-12 1.33D-07.
      1 vectors produced by pass 52 Test12= 3.67D-11 3.33D-08 XBig12= 3.24D-13 4.17D-08.
 InvSVY:  IOpt=1 It=  1 EMax= 5.68D-14
 Solved reduced A of dimension   157 with     3 vectors.
 End of Minotr F.D. properties file   721 does not exist.
 End of Minotr F.D. properties file   722 does not exist.
 End of Minotr F.D. properties file   788 does not exist.
 PrsmSu:  requested number of processors reduced to:   6 ShMem   1 Linda.
   1 Symmetry operations used in ECPInt.
 ECPInt:  NShTT=  396495 NPrTT= 1277675 LenC2=  267910 LenP2D=  533435.
 LDataN:  DoStor=T MaxTD1= 7 Len=  274
 Number of processors reduced to   2 by ecpmxn.
 Symmetrizing basis deriv contribution to polar:
 IMax=3 JMax=2 DiffMx= 0.00D+00
 G2DrvN: will do    12 centers at a time, making   10 passes.
 PxScal for G2LodP:  IOpCl= 1 ISclPx=1 IMOff=     1 NMtTot=     4 NTT= 2536878 ScalPx= 5.22D+00
 Calling FoFCou, ICntrl=  3507 FMM=T I1Cent=   0 AccDes= 0.00D+00.
 PxScal for G2LodP:  IOpCl= 1 ISclPx=1 IMOff=     1 NMtTot=     4 NTT= 2536878 ScalPx= 5.22D+00
 Calling FoFCou, ICntrl=  3507 FMM=T I1Cent=   0 AccDes= 0.00D+00.
 PxScal for G2LodP:  IOpCl= 1 ISclPx=1 IMOff=     1 NMtTot=     4 NTT= 2536878 ScalPx= 5.22D+00
 Calling FoFCou, ICntrl=  3507 FMM=T I1Cent=   0 AccDes= 0.00D+00.
 PxScal for G2LodP:  IOpCl= 1 ISclPx=1 IMOff=     1 NMtTot=     4 NTT= 2536878 ScalPx= 5.22D+00
 Calling FoFCou, ICntrl=  3507 FMM=T I1Cent=   0 AccDes= 0.00D+00.
 PxScal for G2LodP:  IOpCl= 1 ISclPx=1 IMOff=     1 NMtTot=     4 NTT= 2536878 ScalPx= 5.22D+00
 Calling FoFCou, ICntrl=  3507 FMM=T I1Cent=   0 AccDes= 0.00D+00.
 PxScal for G2LodP:  IOpCl= 1 ISclPx=1 IMOff=     1 NMtTot=     4 NTT= 2536878 ScalPx= 5.22D+00
 Calling FoFCou, ICntrl=  3507 FMM=T I1Cent=   0 AccDes= 0.00D+00.
 PxScal for G2LodP:  IOpCl= 1 ISclPx=1 IMOff=     1 NMtTot=     4 NTT= 2536878 ScalPx= 5.22D+00
 Calling FoFCou, ICntrl=  3507 FMM=T I1Cent=   0 AccDes= 0.00D+00.
 PxScal for G2LodP:  IOpCl= 1 ISclPx=1 IMOff=     1 NMtTot=     4 NTT= 2536878 ScalPx= 5.22D+00
 Calling FoFCou, ICntrl=  3507 FMM=T I1Cent=   0 AccDes= 0.00D+00.
 PxScal for G2LodP:  IOpCl= 1 ISclPx=1 IMOff=     1 NMtTot=     4 NTT= 2536878 ScalPx= 5.22D+00
 Calling FoFCou, ICntrl=  3507 FMM=T I1Cent=   0 AccDes= 0.00D+00.
 PxScal for G2LodP:  IOpCl= 1 ISclPx=1 IMOff=     1 NMtTot=     4 NTT= 2536878 ScalPx= 5.22D+00
 Calling FoFCou, ICntrl=  3507 FMM=T I1Cent=   0 AccDes= 0.00D+00.
 End of G2Drv F.D. properties file   721 does not exist.
 End of G2Drv F.D. properties file   722 does not exist.
 End of G2Drv F.D. properties file   788 does not exist.
          IDoAtm=11111111111111111111111111111111111111111111111111
          IDoAtm=11111111111111111111111111111111111111111111111111
          IDoAtm=11111111111
          Differentiating once with respect to electric field.
                with respect to dipole field.
          Differentiating once with respect to nuclear coordinates.
 CalDSu exits because no D1Ps are significant.
          There are   336 degrees of freedom in the 1st order CPHF.  IDoFFX=5 NUNeed=   336.
 Will reuse    3 saved solutions.
    333 vectors produced by pass  0 Test12= 1.10D-12 1.00D-09 XBig12= 8.75D-01 2.37D-01.
 AX will form    24 AO Fock derivatives at one time.
    333 vectors produced by pass  1 Test12= 1.10D-12 1.00D-09 XBig12= 4.29D-01 1.33D-01.
    333 vectors produced by pass  2 Test12= 1.10D-12 1.00D-09 XBig12= 3.36D-03 5.23D-03.
    330 vectors produced by pass  3 Test12= 1.10D-12 1.00D-09 XBig12= 2.71D-05 3.49D-04.
    330 vectors produced by pass  4 Test12= 1.10D-12 1.00D-09 XBig12= 1.36D-07 2.08D-05.
    315 vectors produced by pass  5 Test12= 1.10D-12 1.00D-09 XBig12= 4.96D-10 8.32D-07.
    215 vectors produced by pass  6 Test12= 1.10D-12 1.00D-09 XBig12= 1.83D-12 5.72D-08.
    122 vectors produced by pass  7 Test12= 1.10D-12 1.00D-09 XBig12= 4.98D-14 4.49D-09.
     64 vectors produced by pass  8 Test12= 1.10D-12 1.00D-09 XBig12= 2.49D-14 3.75D-09.
     52 vectors produced by pass  9 Test12= 1.10D-12 1.00D-09 XBig12= 2.77D-14 2.75D-09.
     38 vectors produced by pass 10 Test12= 1.10D-12 1.00D-09 XBig12= 1.84D-14 2.06D-09.
     12 vectors produced by pass 11 Test12= 1.10D-12 1.00D-09 XBig12= 9.71D-15 1.64D-09.
      8 vectors produced by pass 12 Test12= 1.10D-12 1.00D-09 XBig12= 7.96D-15 1.69D-09.
      8 vectors produced by pass 13 Test12= 1.10D-12 1.00D-09 XBig12= 1.38D-14 2.27D-09.
      8 vectors produced by pass 14 Test12= 1.10D-12 1.00D-09 XBig12= 1.62D-14 2.41D-09.
      8 vectors produced by pass 15 Test12= 1.10D-12 1.00D-09 XBig12= 1.22D-14 1.92D-09.
      8 vectors produced by pass 16 Test12= 1.10D-12 1.00D-09 XBig12= 1.77D-14 2.97D-09.
      8 vectors produced by pass 17 Test12= 1.10D-12 1.00D-09 XBig12= 8.71D-15 1.99D-09.
      8 vectors produced by pass 18 Test12= 1.10D-12 1.00D-09 XBig12= 8.67D-15 1.57D-09.
      8 vectors produced by pass 19 Test12= 1.10D-12 1.00D-09 XBig12= 1.50D-14 1.88D-09.
      8 vectors produced by pass 20 Test12= 1.10D-12 1.00D-09 XBig12= 1.10D-14 2.41D-09.
      8 vectors produced by pass 21 Test12= 1.10D-12 1.00D-09 XBig12= 1.34D-14 2.14D-09.
      8 vectors produced by pass 22 Test12= 1.10D-12 1.00D-09 XBig12= 1.23D-14 1.89D-09.
      2 vectors produced by pass 23 Test12= 1.10D-12 1.00D-09 XBig12= 4.49D-15 1.12D-09.
 InvSVY:  IOpt=1 It=  1 EMax= 1.67D-15
 Solved reduced A of dimension  2567 with   336 vectors.
 Isotropic polarizability for W=    0.000000      703.76 Bohr**3.
 End of Minotr F.D. properties file   721 does not exist.
 End of Minotr F.D. properties file   722 does not exist.
 End of Minotr F.D. properties file   788 does not exist.
 Hyperfine terms turned off by default for NAtoms > 100.

 **********************************************************************

            Population analysis using the SCF density.

 **********************************************************************

 Orbital symmetries:
 Alpha Orbitals:
       Occupied  (A) (A) (A) (A) (A) (A) (A) (A) (A) (A) (A) (A)
                 (A) (A) (A) (A) (A) (A) (A) (A) (A) (A) (A) (A)
                 (A) (A) (A) (A) (A) (A) (A) (A) (A) (A) (A) (A)
                 (A) (A) (A) (A) (A) (A) (A) (A) (A) (A) (A) (A)
                 (A) (A) (A) (A) (A) (A) (A) (A) (A) (A) (A) (A)
                 (A) (A) (A) (A) (A) (A) (A) (A) (A) (A) (A) (A)
                 (A) (A) (A) (A) (A) (A) (A) (A) (A) (A) (A) (A)
                 (A) (A) (A) (A) (A) (A) (A) (A) (A) (A) (A) (A)
                 (A) (A) (A) (A) (A) (A) (A) (A) (A) (A) (A) (A)
                 (A) (A) (A) (A) (A) (A) (A) (A) (A) (A) (A) (A)
                 (A) (A) (A) (A) (A) (A) (A) (A) (A) (A) (A) (A)
                 (A) (A) (A) (A) (A) (A) (A) (A) (A) (A) (A) (A)
                 (A) (A) (A) (A) (A) (A) (A) (A) (A) (A) (A) (A)
                 (A) (A) (A) (A) (A) (A) (A) (A) (A) (A) (A) (A)
                 (A) (A) (A) (A) (A) (A) (A) (A) (A) (A) (A) (A)
                 (A) (A) (A) (A) (A) (A) (A) (A) (A) (A) (A) (A)
                 (A) (A) (A) (A) (A) (A) (A) (A) (A) (A) (A) (A)
                 (A) (A) (A) (A) (A) (A) (A) (A) (A) (A) (A) (A)
                 (A) (A) (A) (A) (A) (A) (A) (A) (A) (A) (A) (A)
                 (A) (A) (A) (A) (A) (A) (A) (A) (A) (A) (A) (A)
                 (A) (A) (A) (A) (A) (A) (A) (A) (A) (A) (A) (A)
                 (A) (A) (A) (A) (A) (A) (A) (A) (A) (A) (A) (A)
                 (A) (A) (A) (A) (A) (A) (A) (A) (A) (A) (A) (A)
                 (A) (A) (A) (A)
       Virtual   (A) (A) (A) (A) (A) (A) (A) (A) (A) (A) (A) (A)
                 (A) (A) (A) (A) (A) (A) (A) (A) (A) (A) (A) (A)
                 (A) (A) (A) (A) (A) (A) (A) (A) (A) (A) (A) (A)
                 (A) (A) (A) (A) (A) (A) (A) (A) (A) (A) (A) (A)
                 (A) (A) (A) (A) (A) (A) (A) (A) (A) (A) (A) (A)
                 (A) (A) (A) (A) (A) (A) (A) (A) (A) (A) (A) (A)
                 (A) (A) (A) (A) (A) (A) (A) (A) (A) (A) (A) (A)
                 (A) (A) (A) (A) (A) (A) (A) (A) (A) (A) (A) (A)
                 (A) (A) (A) (A) (A) (A) (A) (A) (A) (A) (A) (A)
                 (A) (A) (A) (A) (A) (A) (A) (A) (A) (A) (A) (A)
                 (A) (A) (A) (A) (A) (A) (A) (A) (A) (A) (A) (A)
                 (A) (A) (A) (A) (A) (A) (A) (A) (A) (A) (A) (A)
                 (A) (A) (A) (A) (A) (A) (A) (A) (A) (A) (A) (A)
                 (A) (A) (A) (A) (A) (A) (A) (A) (A) (A) (A) (A)
                 (A) (A) (A) (A) (A) (A) (A) (A) (A) (A) (A) (A)
                 (A) (A) (A) (A) (A) (A) (A) (A) (A) (A) (A) (A)
                 (A) (A) (A) (A) (A) (A) (A) (A) (A) (A) (A) (A)
                 (A) (A) (A) (A) (A) (A) (A) (A) (A) (A) (A) (A)
                 (A) (A) (A) (A) (A) (A) (A) (A) (A) (A) (A) (A)
                 (A) (A) (A) (A) (A) (A) (A) (A) (A) (A) (A) (A)
                 (A) (A) (A) (A) (A) (A) (A) (A) (A) (A) (A) (A)
                 (A) (A) (A) (A) (A) (A) (A) (A) (A) (A) (A) (A)
                 (A) (A) (A) (A) (A) (A) (A) (A) (A) (A) (A) (A)
                 (A) (A) (A) (A) (A) (A) (A) (A) (A) (A) (A) (A)
                 (A) (A) (A) (A) (A) (A) (A) (A) (A) (A) (A) (A)
                 (A) (A) (A) (A) (A) (A) (A) (A) (A) (A) (A) (A)
                 (A) (A) (A) (A) (A) (A) (A) (A) (A) (A) (A) (A)
                 (A) (A) (A) (A) (A) (A) (A) (A) (A) (A) (A) (A)
                 (A) (A) (A) (A) (A) (A) (A) (A) (A) (A) (A) (A)
                 (A) (A) (A) (A) (A) (A) (A) (A) (A) (A) (A) (A)
                 (A) (A) (A) (A) (A) (A) (A) (A) (A) (A) (A) (A)
                 (A) (A) (A) (A) (A) (A) (A) (A) (A) (A) (A) (A)
                 (A) (A) (A) (A) (A) (A) (A) (A) (A) (A) (A) (A)
                 (A) (A) (A) (A) (A) (A) (A) (A) (A) (A) (A) (A)
                 (A) (A) (A) (A) (A) (A) (A) (A) (A) (A) (A) (A)
                 (A) (A) (A) (A) (A) (A) (A) (A) (A) (A) (A) (A)
                 (A) (A) (A) (A) (A) (A) (A) (A) (A) (A) (A) (A)
                 (A) (A) (A) (A) (A) (A) (A) (A) (A) (A) (A) (A)
                 (A) (A) (A) (A) (A) (A) (A) (A) (A) (A) (A) (A)
                 (A) (A) (A) (A) (A) (A) (A) (A) (A) (A) (A) (A)
                 (A) (A) (A) (A) (A) (A) (A) (A) (A) (A) (A) (A)
                 (A) (A) (A) (A) (A) (A) (A) (A) (A) (A) (A) (A)
                 (A) (A) (A) (A) (A) (A) (A) (A) (A) (A) (A) (A)
                 (A) (A) (A) (A) (A) (A) (A) (A) (A) (A) (A) (A)
                 (A) (A) (A) (A) (A) (A) (A) (A) (A) (A) (A) (A)
                 (A) (A) (A) (A) (A) (A) (A) (A) (A) (A) (A) (A)
                 (A) (A) (A) (A) (A) (A) (A) (A) (A) (A) (A) (A)
                 (A) (A) (A) (A) (A) (A) (A) (A) (A) (A) (A) (A)
                 (A) (A) (A) (A) (A) (A) (A) (A) (A) (A) (A) (A)
                 (A) (A) (A) (A) (A) (A) (A) (A) (A) (A) (A) (A)
                 (A) (A) (A) (A) (A) (A) (A) (A) (A) (A) (A) (A)
                 (A) (A) (A) (A) (A) (A) (A) (A) (A) (A) (A) (A)
                 (A) (A) (A) (A) (A) (A) (A) (A) (A) (A) (A) (A)
                 (A) (A) (A) (A) (A) (A) (A) (A) (A) (A) (A) (A)
                 (A) (A) (A) (A) (A) (A) (A) (A) (A) (A) (A) (A)
                 (A) (A) (A) (A) (A) (A) (A) (A) (A) (A) (A) (A)
                 (A) (A) (A) (A) (A) (A) (A) (A) (A) (A) (A) (A)
                 (A) (A) (A) (A) (A) (A) (A) (A) (A) (A) (A) (A)
                 (A) (A) (A) (A) (A) (A) (A) (A) (A) (A) (A) (A)
                 (A) (A) (A) (A) (A) (A) (A) (A) (A) (A) (A) (A)
                 (A) (A) (A) (A) (A) (A) (A) (A) (A) (A) (A) (A)
                 (A) (A) (A) (A) (A) (A) (A) (A) (A) (A) (A) (A)
                 (A) (A) (A) (A) (A) (A) (A) (A) (A) (A) (A) (A)
                 (A) (A) (A) (A) (A) (A) (A) (A) (A) (A) (A) (A)
                 (A) (A) (A) (A) (A) (A) (A) (A) (A) (A) (A) (A)
                 (A) (A) (A) (A) (A) (A) (A) (A) (A) (A) (A) (A)
                 (A) (A) (A) (A) (A) (A) (A) (A) (A) (A) (A) (A)
                 (A) (A) (A) (A) (A) (A) (A) (A) (A) (A) (A) (A)
                 (A) (A) (A) (A) (A) (A) (A) (A) (A) (A) (A) (A)
                 (A) (A) (A) (A) (A) (A) (A) (A) (A) (A) (A) (A)
                 (A) (A) (A) (A) (A) (A) (A) (A) (A) (A) (A) (A)
                 (A) (A) (A) (A) (A) (A) (A) (A) (A) (A) (A) (A)
                 (A) (A) (A) (A) (A) (A) (A) (A) (A) (A) (A) (A)
                 (A) (A) (A) (A) (A) (A) (A) (A) (A) (A) (A) (A)
                 (A) (A) (A) (A) (A) (A) (A) (A) (A) (A) (A) (A)
                 (A) (A) (A) (A) (A) (A) (A) (A) (A) (A) (A) (A)
                 (A) (A) (A) (A) (A) (A) (A) (A) (A) (A) (A) (A)
                 (A) (A) (A) (A) (A) (A) (A) (A) (A) (A) (A) (A)
                 (A) (A) (A) (A) (A) (A) (A) (A) (A) (A) (A) (A)
                 (A) (A) (A) (A) (A) (A) (A) (A) (A) (A) (A) (A)
                 (A) (A) (A) (A) (A) (A) (A) (A) (A) (A) (A) (A)
                 (A) (A) (A) (A) (A) (A) (A) (A) (A) (A) (A) (A)
                 (A) (A) (A) (A) (A) (A) (A) (A) (A) (A) (A) (A)
                 (A) (A) (A) (A) (A) (A) (A) (A) (A) (A) (A) (A)
                 (A) (A) (A) (A) (A) (A) (A) (A) (A) (A) (A) (A)
                 (A) (A) (A) (A) (A) (A) (A) (A) (A) (A) (A) (A)
                 (A) (A) (A) (A) (A) (A) (A) (A) (A) (A) (A) (A)
                 (A) (A) (A) (A) (A) (A) (A) (A) (A) (A) (A) (A)
                 (A) (A) (A) (A) (A) (A) (A) (A) (A) (A) (A) (A)
                 (A) (A) (A) (A) (A) (A) (A) (A) (A) (A) (A) (A)
                 (A) (A) (A) (A) (A) (A) (A) (A) (A) (A) (A) (A)
                 (A) (A) (A) (A) (A) (A) (A) (A) (A) (A) (A) (A)
                 (A) (A) (A) (A) (A) (A) (A) (A) (A) (A) (A) (A)
                 (A) (A) (A) (A) (A) (A) (A) (A) (A) (A) (A) (A)
                 (A) (A) (A) (A) (A) (A) (A) (A) (A) (A) (A) (A)
                 (A) (A) (A) (A) (A) (A) (A) (A) (A) (A) (A) (A)
                 (A) (A) (A) (A) (A) (A) (A) (A) (A) (A) (A) (A)
                 (A) (A) (A) (A) (A) (A) (A) (A) (A) (A) (A) (A)
                 (A) (A) (A) (A) (A) (A) (A) (A) (A) (A) (A) (A)
                 (A) (A) (A) (A) (A) (A) (A) (A) (A) (A) (A) (A)
                 (A) (A) (A) (A) (A) (A) (A) (A) (A) (A) (A) (A)
                 (A) (A) (A) (A) (A) (A) (A) (A) (A) (A) (A) (A)
                 (A) (A) (A) (A) (A) (A) (A) (A) (A) (A) (A) (A)
                 (A) (A) (A) (A) (A) (A) (A) (A) (A) (A) (A) (A)
                 (A) (A) (A) (A) (A) (A) (A) (A) (A) (A) (A) (A)
                 (A) (A) (A) (A) (A) (A) (A) (A) (A) (A) (A) (A)
                 (A) (A) (A) (A) (A) (A) (A) (A) (A) (A) (A) (A)
                 (A) (A) (A) (A) (A) (A) (A) (A) (A) (A) (A) (A)
                 (A) (A) (A) (A) (A) (A) (A) (A) (A) (A) (A) (A)
                 (A) (A) (A) (A) (A) (A) (A) (A) (A) (A) (A) (A)
                 (A) (A) (A) (A) (A) (A) (A) (A) (A) (A) (A) (A)
                 (A) (A) (A) (A) (A) (A) (A) (A) (A) (A) (A) (A)
                 (A) (A) (A) (A) (A) (A) (A) (A) (A) (A) (A) (A)
                 (A) (A) (A) (A) (A) (A) (A) (A) (A) (A) (A) (A)
                 (A) (A) (A) (A) (A) (A) (A) (A) (A) (A) (A) (A)
                 (A) (A) (A) (A) (A) (A) (A) (A) (A) (A) (A) (A)
                 (A) (A) (A) (A) (A) (A) (A) (A) (A) (A) (A) (A)
                 (A) (A) (A) (A) (A) (A) (A) (A) (A) (A) (A) (A)
                 (A) (A) (A) (A) (A) (A) (A) (A) (A) (A) (A) (A)
                 (A) (A) (A) (A) (A) (A) (A) (A) (A) (A) (A) (A)
                 (A) (A) (A) (A) (A) (A) (A) (A) (A) (A) (A) (A)
                 (A) (A) (A) (A) (A) (A) (A) (A) (A) (A) (A) (A)
                 (A) (A) (A) (A) (A) (A) (A) (A) (A) (A) (A) (A)
                 (A) (A) (A) (A) (A) (A) (A) (A) (A) (A) (A) (A)
                 (A) (A) (A) (A) (A) (A) (A) (A) (A) (A) (A) (A)
                 (A) (A) (A) (A) (A) (A) (A) (A) (A) (A) (A) (A)
                 (A) (A) (A) (A) (A) (A) (A) (A) (A) (A) (A) (A)
                 (A) (A) (A) (A) (A) (A) (A) (A) (A) (A) (A) (A)
                 (A) (A) (A) (A) (A) (A) (A) (A) (A) (A) (A) (A)
                 (A) (A) (A) (A) (A) (A) (A) (A) (A) (A) (A) (A)
                 (A) (A) (A) (A) (A) (A) (A) (A) (A) (A) (A) (A)
                 (A) (A) (A) (A) (A) (A) (A) (A) (A) (A) (A) (A)
                 (A) (A) (A) (A) (A) (A) (A) (A) (A) (A) (A) (A)
                 (A) (A) (A) (A) (A) (A) (A) (A) (A) (A) (A) (A)
                 (A) (A) (A) (A) (A) (A) (A) (A) (A) (A) (A) (A)
                 (A) (A) (A) (A) (A) (A) (A) (A) (A) (A) (A) (A)
                 (A) (A) (A) (A) (A) (A) (A) (A) (A) (A) (A) (A)
                 (A) (A) (A) (A) (A) (A) (A) (A) (A) (A) (A) (A)
                 (A) (A) (A) (A) (A) (A) (A) (A) (A) (A) (A) (A)
                 (A) (A) (A) (A) (A) (A) (A) (A) (A) (A) (A) (A)
                 (A) (A) (A) (A) (A) (A) (A) (A) (A) (A) (A) (A)
                 (A) (A) (A) (A) (A) (A) (A) (A) (A) (A) (A) (A)
                 (A) (A) (A) (A) (A) (A) (A) (A) (A) (A) (A) (A)
                 (A) (A) (A) (A) (A) (A) (A) (A) (A) (A) (A) (A)
                 (A) (A) (A) (A) (A) (A) (A) (A) (A) (A) (A) (A)
                 (A) (A) (A) (A) (A) (A) (A) (A) (A) (A) (A) (A)
                 (A) (A) (A) (A) (A) (A) (A) (A) (A) (A) (A) (A)
                 (A) (A) (A) (A) (A) (A) (A) (A) (A) (A) (A) (A)
                 (A) (A) (A) (A) (A) (A) (A) (A) (A) (A) (A) (A)
                 (A) (A) (A) (A) (A) (A) (A) (A) (A) (A) (A) (A)
                 (A) (A) (A) (A) (A) (A) (A) (A) (A) (A) (A) (A)
                 (A) (A) (A) (A) (A) (A) (A) (A) (A) (A) (A) (A)
                 (A) (A) (A) (A) (A) (A) (A) (A) (A) (A) (A) (A)
                 (A) (A) (A) (A) (A) (A) (A) (A) (A) (A) (A) (A)
                 (A) (A) (A) (A) (A) (A) (A) (A) (A) (A) (A) (A)
                 (A) (A) (A) (A) (A) (A) (A) (A) (A) (A) (A) (A)
                 (A) (A) (A) (A) (A) (A) (A) (A) (A) (A) (A) (A)
                 (A) (A) (A) (A) (A) (A) (A) (A) (A) (A) (A) (A)
                 (A) (A) (A) (A) (A) (A) (A) (A) (A) (A) (A) (A)
                 (A) (A) (A) (A) (A) (A) (A) (A) (A) (A) (A) (A)
                 (A) (A) (A) (A) (A) (A) (A) (A) (A) (A) (A) (A)
                 (A) (A) (A) (A) (A) (A) (A) (A) (A) (A) (A) (A)
                 (A) (A) (A) (A) (A) (A) (A) (A) (A) (A) (A) (A)
                 (A) (A) (A) (A) (A) (A) (A) (A) (A) (A) (A) (A)
                 (A) (A) (A) (A)
 Beta  Orbitals:
       Occupied  (A) (A) (A) (A) (A) (A) (A) (A) (A) (A) (A) (A)
                 (A) (A) (A) (A) (A) (A) (A) (A) (A) (A) (A) (A)
                 (A) (A) (A) (A) (A) (A) (A) (A) (A) (A) (A) (A)
                 (A) (A) (A) (A) (A) (A) (A) (A) (A) (A) (A) (A)
                 (A) (A) (A) (A) (A) (A) (A) (A) (A) (A) (A) (A)
                 (A) (A) (A) (A) (A) (A) (A) (A) (A) (A) (A) (A)
                 (A) (A) (A) (A) (A) (A) (A) (A) (A) (A) (A) (A)
                 (A) (A) (A) (A) (A) (A) (A) (A) (A) (A) (A) (A)
                 (A) (A) (A) (A) (A) (A) (A) (A) (A) (A) (A) (A)
                 (A) (A) (A) (A) (A) (A) (A) (A) (A) (A) (A) (A)
                 (A) (A) (A) (A) (A) (A) (A) (A) (A) (A) (A) (A)
                 (A) (A) (A) (A) (A) (A) (A) (A) (A) (A) (A) (A)
                 (A) (A) (A) (A) (A) (A) (A) (A) (A) (A) (A) (A)
                 (A) (A) (A) (A) (A) (A) (A) (A) (A) (A) (A) (A)
                 (A) (A) (A) (A) (A) (A) (A) (A) (A) (A) (A) (A)
                 (A) (A) (A) (A) (A) (A) (A) (A) (A) (A) (A) (A)
                 (A) (A) (A) (A) (A) (A) (A) (A) (A) (A) (A) (A)
                 (A) (A) (A) (A) (A) (A) (A) (A) (A) (A) (A) (A)
                 (A) (A) (A) (A) (A) (A) (A) (A) (A) (A) (A) (A)
                 (A) (A) (A) (A) (A) (A) (A) (A) (A) (A) (A) (A)
                 (A) (A) (A) (A) (A) (A) (A) (A) (A) (A) (A) (A)
                 (A) (A) (A) (A) (A) (A) (A) (A) (A) (A) (A) (A)
                 (A) (A) (A) (A) (A) (A) (A) (A) (A) (A) (A) (A)
                 (A) (A)
       Virtual   (A) (A) (A) (A) (A) (A) (A) (A) (A) (A) (A) (A)
                 (A) (A) (A) (A) (A) (A) (A) (A) (A) (A) (A) (A)
                 (A) (A) (A) (A) (A) (A) (A) (A) (A) (A) (A) (A)
                 (A) (A) (A) (A) (A) (A) (A) (A) (A) (A) (A) (A)
                 (A) (A) (A) (A) (A) (A) (A) (A) (A) (A) (A) (A)
                 (A) (A) (A) (A) (A) (A) (A) (A) (A) (A) (A) (A)
                 (A) (A) (A) (A) (A) (A) (A) (A) (A) (A) (A) (A)
                 (A) (A) (A) (A) (A) (A) (A) (A) (A) (A) (A) (A)
                 (A) (A) (A) (A) (A) (A) (A) (A) (A) (A) (A) (A)
                 (A) (A) (A) (A) (A) (A) (A) (A) (A) (A) (A) (A)
                 (A) (A) (A) (A) (A) (A) (A) (A) (A) (A) (A) (A)
                 (A) (A) (A) (A) (A) (A) (A) (A) (A) (A) (A) (A)
                 (A) (A) (A) (A) (A) (A) (A) (A) (A) (A) (A) (A)
                 (A) (A) (A) (A) (A) (A) (A) (A) (A) (A) (A) (A)
                 (A) (A) (A) (A) (A) (A) (A) (A) (A) (A) (A) (A)
                 (A) (A) (A) (A) (A) (A) (A) (A) (A) (A) (A) (A)
                 (A) (A) (A) (A) (A) (A) (A) (A) (A) (A) (A) (A)
                 (A) (A) (A) (A) (A) (A) (A) (A) (A) (A) (A) (A)
                 (A) (A) (A) (A) (A) (A) (A) (A) (A) (A) (A) (A)
                 (A) (A) (A) (A) (A) (A) (A) (A) (A) (A) (A) (A)
                 (A) (A) (A) (A) (A) (A) (A) (A) (A) (A) (A) (A)
                 (A) (A) (A) (A) (A) (A) (A) (A) (A) (A) (A) (A)
                 (A) (A) (A) (A) (A) (A) (A) (A) (A) (A) (A) (A)
                 (A) (A) (A) (A) (A) (A) (A) (A) (A) (A) (A) (A)
                 (A) (A) (A) (A) (A) (A) (A) (A) (A) (A) (A) (A)
                 (A) (A) (A) (A) (A) (A) (A) (A) (A) (A) (A) (A)
                 (A) (A) (A) (A) (A) (A) (A) (A) (A) (A) (A) (A)
                 (A) (A) (A) (A) (A) (A) (A) (A) (A) (A) (A) (A)
                 (A) (A) (A) (A) (A) (A) (A) (A) (A) (A) (A) (A)
                 (A) (A) (A) (A) (A) (A) (A) (A) (A) (A) (A) (A)
                 (A) (A) (A) (A) (A) (A) (A) (A) (A) (A) (A) (A)
                 (A) (A) (A) (A) (A) (A) (A) (A) (A) (A) (A) (A)
                 (A) (A) (A) (A) (A) (A) (A) (A) (A) (A) (A) (A)
                 (A) (A) (A) (A) (A) (A) (A) (A) (A) (A) (A) (A)
                 (A) (A) (A) (A) (A) (A) (A) (A) (A) (A) (A) (A)
                 (A) (A) (A) (A) (A) (A) (A) (A) (A) (A) (A) (A)
                 (A) (A) (A) (A) (A) (A) (A) (A) (A) (A) (A) (A)
                 (A) (A) (A) (A) (A) (A) (A) (A) (A) (A) (A) (A)
                 (A) (A) (A) (A) (A) (A) (A) (A) (A) (A) (A) (A)
                 (A) (A) (A) (A) (A) (A) (A) (A) (A) (A) (A) (A)
                 (A) (A) (A) (A) (A) (A) (A) (A) (A) (A) (A) (A)
                 (A) (A) (A) (A) (A) (A) (A) (A) (A) (A) (A) (A)
                 (A) (A) (A) (A) (A) (A) (A) (A) (A) (A) (A) (A)
                 (A) (A) (A) (A) (A) (A) (A) (A) (A) (A) (A) (A)
                 (A) (A) (A) (A) (A) (A) (A) (A) (A) (A) (A) (A)
                 (A) (A) (A) (A) (A) (A) (A) (A) (A) (A) (A) (A)
                 (A) (A) (A) (A) (A) (A) (A) (A) (A) (A) (A) (A)
                 (A) (A) (A) (A) (A) (A) (A) (A) (A) (A) (A) (A)
                 (A) (A) (A) (A) (A) (A) (A) (A) (A) (A) (A) (A)
                 (A) (A) (A) (A) (A) (A) (A) (A) (A) (A) (A) (A)
                 (A) (A) (A) (A) (A) (A) (A) (A) (A) (A) (A) (A)
                 (A) (A) (A) (A) (A) (A) (A) (A) (A) (A) (A) (A)
                 (A) (A) (A) (A) (A) (A) (A) (A) (A) (A) (A) (A)
                 (A) (A) (A) (A) (A) (A) (A) (A) (A) (A) (A) (A)
                 (A) (A) (A) (A) (A) (A) (A) (A) (A) (A) (A) (A)
                 (A) (A) (A) (A) (A) (A) (A) (A) (A) (A) (A) (A)
                 (A) (A) (A) (A) (A) (A) (A) (A) (A) (A) (A) (A)
                 (A) (A) (A) (A) (A) (A) (A) (A) (A) (A) (A) (A)
                 (A) (A) (A) (A) (A) (A) (A) (A) (A) (A) (A) (A)
                 (A) (A) (A) (A) (A) (A) (A) (A) (A) (A) (A) (A)
                 (A) (A) (A) (A) (A) (A) (A) (A) (A) (A) (A) (A)
                 (A) (A) (A) (A) (A) (A) (A) (A) (A) (A) (A) (A)
                 (A) (A) (A) (A) (A) (A) (A) (A) (A) (A) (A) (A)
                 (A) (A) (A) (A) (A) (A) (A) (A) (A) (A) (A) (A)
                 (A) (A) (A) (A) (A) (A) (A) (A) (A) (A) (A) (A)
                 (A) (A) (A) (A) (A) (A) (A) (A) (A) (A) (A) (A)
                 (A) (A) (A) (A) (A) (A) (A) (A) (A) (A) (A) (A)
                 (A) (A) (A) (A) (A) (A) (A) (A) (A) (A) (A) (A)
                 (A) (A) (A) (A) (A) (A) (A) (A) (A) (A) (A) (A)
                 (A) (A) (A) (A) (A) (A) (A) (A) (A) (A) (A) (A)
                 (A) (A) (A) (A) (A) (A) (A) (A) (A) (A) (A) (A)
                 (A) (A) (A) (A) (A) (A) (A) (A) (A) (A) (A) (A)
                 (A) (A) (A) (A) (A) (A) (A) (A) (A) (A) (A) (A)
                 (A) (A) (A) (A) (A) (A) (A) (A) (A) (A) (A) (A)
                 (A) (A) (A) (A) (A) (A) (A) (A) (A) (A) (A) (A)
                 (A) (A) (A) (A) (A) (A) (A) (A) (A) (A) (A) (A)
                 (A) (A) (A) (A) (A) (A) (A) (A) (A) (A) (A) (A)
                 (A) (A) (A) (A) (A) (A) (A) (A) (A) (A) (A) (A)
                 (A) (A) (A) (A) (A) (A) (A) (A) (A) (A) (A) (A)
                 (A) (A) (A) (A) (A) (A) (A) (A) (A) (A) (A) (A)
                 (A) (A) (A) (A) (A) (A) (A) (A) (A) (A) (A) (A)
                 (A) (A) (A) (A) (A) (A) (A) (A) (A) (A) (A) (A)
                 (A) (A) (A) (A) (A) (A) (A) (A) (A) (A) (A) (A)
                 (A) (A) (A) (A) (A) (A) (A) (A) (A) (A) (A) (A)
                 (A) (A) (A) (A) (A) (A) (A) (A) (A) (A) (A) (A)
                 (A) (A) (A) (A) (A) (A) (A) (A) (A) (A) (A) (A)
                 (A) (A) (A) (A) (A) (A) (A) (A) (A) (A) (A) (A)
                 (A) (A) (A) (A) (A) (A) (A) (A) (A) (A) (A) (A)
                 (A) (A) (A) (A) (A) (A) (A) (A) (A) (A) (A) (A)
                 (A) (A) (A) (A) (A) (A) (A) (A) (A) (A) (A) (A)
                 (A) (A) (A) (A) (A) (A) (A) (A) (A) (A) (A) (A)
                 (A) (A) (A) (A) (A) (A) (A) (A) (A) (A) (A) (A)
                 (A) (A) (A) (A) (A) (A) (A) (A) (A) (A) (A) (A)
                 (A) (A) (A) (A) (A) (A) (A) (A) (A) (A) (A) (A)
                 (A) (A) (A) (A) (A) (A) (A) (A) (A) (A) (A) (A)
                 (A) (A) (A) (A) (A) (A) (A) (A) (A) (A) (A) (A)
                 (A) (A) (A) (A) (A) (A) (A) (A) (A) (A) (A) (A)
                 (A) (A) (A) (A) (A) (A) (A) (A) (A) (A) (A) (A)
                 (A) (A) (A) (A) (A) (A) (A) (A) (A) (A) (A) (A)
                 (A) (A) (A) (A) (A) (A) (A) (A) (A) (A) (A) (A)
                 (A) (A) (A) (A) (A) (A) (A) (A) (A) (A) (A) (A)
                 (A) (A) (A) (A) (A) (A) (A) (A) (A) (A) (A) (A)
                 (A) (A) (A) (A) (A) (A) (A) (A) (A) (A) (A) (A)
                 (A) (A) (A) (A) (A) (A) (A) (A) (A) (A) (A) (A)
                 (A) (A) (A) (A) (A) (A) (A) (A) (A) (A) (A) (A)
                 (A) (A) (A) (A) (A) (A) (A) (A) (A) (A) (A) (A)
                 (A) (A) (A) (A) (A) (A) (A) (A) (A) (A) (A) (A)
                 (A) (A) (A) (A) (A) (A) (A) (A) (A) (A) (A) (A)
                 (A) (A) (A) (A) (A) (A) (A) (A) (A) (A) (A) (A)
                 (A) (A) (A) (A) (A) (A) (A) (A) (A) (A) (A) (A)
                 (A) (A) (A) (A) (A) (A) (A) (A) (A) (A) (A) (A)
                 (A) (A) (A) (A) (A) (A) (A) (A) (A) (A) (A) (A)
                 (A) (A) (A) (A) (A) (A) (A) (A) (A) (A) (A) (A)
                 (A) (A) (A) (A) (A) (A) (A) (A) (A) (A) (A) (A)
                 (A) (A) (A) (A) (A) (A) (A) (A) (A) (A) (A) (A)
                 (A) (A) (A) (A) (A) (A) (A) (A) (A) (A) (A) (A)
                 (A) (A) (A) (A) (A) (A) (A) (A) (A) (A) (A) (A)
                 (A) (A) (A) (A) (A) (A) (A) (A) (A) (A) (A) (A)
                 (A) (A) (A) (A) (A) (A) (A) (A) (A) (A) (A) (A)
                 (A) (A) (A) (A) (A) (A) (A) (A) (A) (A) (A) (A)
                 (A) (A) (A) (A) (A) (A) (A) (A) (A) (A) (A) (A)
                 (A) (A) (A) (A) (A) (A) (A) (A) (A) (A) (A) (A)
                 (A) (A) (A) (A) (A) (A) (A) (A) (A) (A) (A) (A)
                 (A) (A) (A) (A) (A) (A) (A) (A) (A) (A) (A) (A)
                 (A) (A) (A) (A) (A) (A) (A) (A) (A) (A) (A) (A)
                 (A) (A) (A) (A) (A) (A) (A) (A) (A) (A) (A) (A)
                 (A) (A) (A) (A) (A) (A) (A) (A) (A) (A) (A) (A)
                 (A) (A) (A) (A) (A) (A) (A) (A) (A) (A) (A) (A)
                 (A) (A) (A) (A) (A) (A) (A) (A) (A) (A) (A) (A)
                 (A) (A) (A) (A) (A) (A) (A) (A) (A) (A) (A) (A)
                 (A) (A) (A) (A) (A) (A) (A) (A) (A) (A) (A) (A)
                 (A) (A) (A) (A) (A) (A) (A) (A) (A) (A) (A) (A)
                 (A) (A) (A) (A) (A) (A) (A) (A) (A) (A) (A) (A)
                 (A) (A) (A) (A) (A) (A) (A) (A) (A) (A) (A) (A)
                 (A) (A) (A) (A) (A) (A) (A) (A) (A) (A) (A) (A)
                 (A) (A) (A) (A) (A) (A) (A) (A) (A) (A) (A) (A)
                 (A) (A) (A) (A) (A) (A) (A) (A) (A) (A) (A) (A)
                 (A) (A) (A) (A) (A) (A) (A) (A) (A) (A) (A) (A)
                 (A) (A) (A) (A) (A) (A) (A) (A) (A) (A) (A) (A)
                 (A) (A) (A) (A) (A) (A) (A) (A) (A) (A) (A) (A)
                 (A) (A) (A) (A) (A) (A) (A) (A) (A) (A) (A) (A)
                 (A) (A) (A) (A) (A) (A) (A) (A) (A) (A) (A) (A)
                 (A) (A) (A) (A) (A) (A) (A) (A) (A) (A) (A) (A)
                 (A) (A) (A) (A) (A) (A) (A) (A) (A) (A) (A) (A)
                 (A) (A) (A) (A) (A) (A) (A) (A) (A) (A) (A) (A)
                 (A) (A) (A) (A) (A) (A) (A) (A) (A) (A) (A) (A)
                 (A) (A) (A) (A) (A) (A) (A) (A) (A) (A) (A) (A)
                 (A) (A) (A) (A) (A) (A) (A) (A) (A) (A) (A) (A)
                 (A) (A) (A) (A) (A) (A) (A) (A) (A) (A) (A) (A)
                 (A) (A) (A) (A) (A) (A) (A) (A) (A) (A) (A) (A)
                 (A) (A) (A) (A) (A) (A) (A) (A) (A) (A) (A) (A)
                 (A) (A) (A) (A) (A) (A) (A) (A) (A) (A) (A) (A)
                 (A) (A) (A) (A) (A) (A) (A) (A) (A) (A) (A) (A)
                 (A) (A) (A) (A) (A) (A) (A) (A) (A) (A) (A) (A)
                 (A) (A) (A) (A) (A) (A) (A) (A) (A) (A) (A) (A)
                 (A) (A) (A) (A) (A) (A) (A) (A) (A) (A) (A) (A)
                 (A) (A) (A) (A) (A) (A) (A) (A) (A) (A) (A) (A)
                 (A) (A) (A) (A) (A) (A) (A) (A) (A) (A) (A) (A)
                 (A) (A) (A) (A) (A) (A) (A) (A) (A) (A) (A) (A)
                 (A) (A) (A) (A) (A) (A) (A) (A) (A) (A) (A) (A)
                 (A) (A) (A) (A) (A) (A) (A) (A) (A) (A) (A) (A)
                 (A) (A) (A) (A) (A) (A) (A) (A) (A) (A) (A) (A)
                 (A) (A) (A) (A) (A) (A) (A) (A) (A) (A) (A) (A)
                 (A) (A) (A) (A) (A) (A) (A) (A) (A) (A) (A) (A)
                 (A) (A) (A) (A) (A) (A)
 The electronic state is 3-A.
 Alpha  occ. eigenvalues -- -234.21381-234.20623-234.20154-234.17721-144.22958
 Alpha  occ. eigenvalues --  -26.83155 -26.80655 -26.80030 -26.79333 -22.98180
 Alpha  occ. eigenvalues --  -22.98077 -22.97524 -22.96008 -22.95955 -22.95822
 Alpha  occ. eigenvalues --  -22.95669 -22.95500 -22.95297 -22.95232 -22.95091
 Alpha  occ. eigenvalues --  -22.94989 -18.73187 -18.70192 -18.69439 -18.68804
 Alpha  occ. eigenvalues --  -18.68661 -18.68346 -18.68232 -18.68106 -18.67635
 Alpha  occ. eigenvalues --  -18.67568 -18.67544 -18.67530 -18.67449 -18.66696
 Alpha  occ. eigenvalues --  -18.66410 -18.66305 -18.65781 -18.65763 -18.65645
 Alpha  occ. eigenvalues --  -18.65268 -18.64837 -18.64498 -18.63662 -14.89015
 Alpha  occ. eigenvalues --  -14.00030 -13.98655 -13.95431 -13.95341 -13.88932
 Alpha  occ. eigenvalues --  -12.09108 -12.09029 -12.09022  -9.95014  -9.93026
 Alpha  occ. eigenvalues --   -9.92888  -9.92697  -9.92273  -9.91859  -9.91789
 Alpha  occ. eigenvalues --   -9.89764  -9.88168  -9.88163  -9.87863  -9.87467
 Alpha  occ. eigenvalues --   -9.85447  -9.85373  -9.83721  -9.83560  -9.82818
 Alpha  occ. eigenvalues --   -9.82765  -9.82682  -9.82644  -9.82618  -9.82259
 Alpha  occ. eigenvalues --   -9.81626  -9.81521  -9.81457  -9.81395  -9.81271
 Alpha  occ. eigenvalues --   -9.81112  -3.00257  -2.98893  -2.89909  -2.89433
 Alpha  occ. eigenvalues --   -1.90805  -1.90620  -1.89889  -1.89560  -1.89208
 Alpha  occ. eigenvalues --   -1.88607  -1.80567  -1.80384  -1.80158  -1.80144
 Alpha  occ. eigenvalues --   -1.79877  -1.79495  -1.50504  -0.90587  -0.90285
 Alpha  occ. eigenvalues --   -0.89798  -0.89581  -0.89382  -0.88959  -0.88457
 Alpha  occ. eigenvalues --   -0.88354  -0.88183  -0.83649  -0.83394  -0.83238
 Alpha  occ. eigenvalues --   -0.82546  -0.82119  -0.81618  -0.81424  -0.81164
 Alpha  occ. eigenvalues --   -0.81032  -0.80453  -0.80315  -0.79921  -0.79674
 Alpha  occ. eigenvalues --   -0.78945  -0.76257  -0.75406  -0.74976  -0.72925
 Alpha  occ. eigenvalues --   -0.72344  -0.71378  -0.69913  -0.69140  -0.65818
 Alpha  occ. eigenvalues --   -0.65463  -0.62603  -0.62567  -0.62502  -0.62439
 Alpha  occ. eigenvalues --   -0.62047  -0.60744  -0.58755  -0.57733  -0.55122
 Alpha  occ. eigenvalues --   -0.54370  -0.51082  -0.50991  -0.50842  -0.50695
 Alpha  occ. eigenvalues --   -0.50369  -0.50007  -0.48423  -0.47916  -0.45614
 Alpha  occ. eigenvalues --   -0.44280  -0.42512  -0.41504  -0.41344  -0.40805
 Alpha  occ. eigenvalues --   -0.40559  -0.40297  -0.40183  -0.39864  -0.39607
 Alpha  occ. eigenvalues --   -0.38865  -0.38147  -0.37884  -0.36823  -0.36394
 Alpha  occ. eigenvalues --   -0.36087  -0.35613  -0.35382  -0.35146  -0.34858
 Alpha  occ. eigenvalues --   -0.34773  -0.34552  -0.34466  -0.34387  -0.34280
 Alpha  occ. eigenvalues --   -0.33870  -0.33862  -0.33777  -0.33653  -0.33449
 Alpha  occ. eigenvalues --   -0.33235  -0.33130  -0.33028  -0.32623  -0.32400
 Alpha  occ. eigenvalues --   -0.32284  -0.31903  -0.31787  -0.31683  -0.31661
 Alpha  occ. eigenvalues --   -0.31460  -0.31239  -0.30826  -0.30220  -0.30081
 Alpha  occ. eigenvalues --   -0.29680  -0.29443  -0.29363  -0.29251  -0.28676
 Alpha  occ. eigenvalues --   -0.28608  -0.28281  -0.28135  -0.27895  -0.27607
 Alpha  occ. eigenvalues --   -0.27485  -0.27387  -0.27241  -0.27232  -0.27142
 Alpha  occ. eigenvalues --   -0.26994  -0.26732  -0.26577  -0.26352  -0.26126
 Alpha  occ. eigenvalues --   -0.25828  -0.25463  -0.25381  -0.25155  -0.24961
 Alpha  occ. eigenvalues --   -0.24917  -0.24905  -0.24665  -0.24473  -0.24149
 Alpha  occ. eigenvalues --   -0.23776  -0.23702  -0.23635  -0.23340  -0.23126
 Alpha  occ. eigenvalues --   -0.22952  -0.22547  -0.22330  -0.22172  -0.21811
 Alpha  occ. eigenvalues --   -0.21375  -0.20968  -0.20890  -0.20229  -0.20162
 Alpha  occ. eigenvalues --   -0.19625  -0.19488  -0.19425  -0.19058  -0.18622
 Alpha  occ. eigenvalues --   -0.18572  -0.18420  -0.18228  -0.17891  -0.17766
 Alpha  occ. eigenvalues --   -0.17554  -0.17405  -0.17314  -0.17206  -0.16983
 Alpha  occ. eigenvalues --   -0.16800  -0.16421  -0.16308  -0.15969  -0.15755
 Alpha  occ. eigenvalues --   -0.15597  -0.15499  -0.15440  -0.15177  -0.15028
 Alpha  occ. eigenvalues --   -0.14538  -0.14240  -0.13942  -0.13826  -0.13452
 Alpha  occ. eigenvalues --   -0.13110  -0.12807  -0.12520  -0.12180  -0.11887
 Alpha  occ. eigenvalues --   -0.11196  -0.10525  -0.09591  -0.08573  -0.05834
 Alpha virt. eigenvalues --   -0.04149  -0.03433  -0.03171  -0.02568  -0.01939
 Alpha virt. eigenvalues --   -0.01830  -0.01283  -0.00543   0.01133   0.02681
 Alpha virt. eigenvalues --    0.03014   0.03188   0.03537   0.04133   0.04525
 Alpha virt. eigenvalues --    0.05638   0.05718   0.05803   0.05979   0.06197
 Alpha virt. eigenvalues --    0.06456   0.07173   0.07371   0.08391   0.08690
 Alpha virt. eigenvalues --    0.08961   0.09134   0.09478   0.09677   0.09863
 Alpha virt. eigenvalues --    0.09968   0.10507   0.10922   0.11022   0.11220
 Alpha virt. eigenvalues --    0.11694   0.11728   0.12002   0.12467   0.12515
 Alpha virt. eigenvalues --    0.12838   0.13440   0.13683   0.13921   0.14167
 Alpha virt. eigenvalues --    0.14350   0.14453   0.14753   0.15166   0.15250
 Alpha virt. eigenvalues --    0.15510   0.15783   0.16012   0.16107   0.16198
 Alpha virt. eigenvalues --    0.16259   0.16340   0.16553   0.16646   0.16879
 Alpha virt. eigenvalues --    0.16950   0.17007   0.17086   0.17315   0.17378
 Alpha virt. eigenvalues --    0.17644   0.17799   0.18009   0.18145   0.18175
 Alpha virt. eigenvalues --    0.18444   0.18717   0.18885   0.18934   0.19077
 Alpha virt. eigenvalues --    0.19193   0.19467   0.19609   0.19848   0.19931
 Alpha virt. eigenvalues --    0.20303   0.20424   0.20566   0.20793   0.20912
 Alpha virt. eigenvalues --    0.21247   0.21311   0.21572   0.21776   0.22049
 Alpha virt. eigenvalues --    0.22078   0.22273   0.22437   0.22499   0.22722
 Alpha virt. eigenvalues --    0.23027   0.23271   0.23354   0.23708   0.23885
 Alpha virt. eigenvalues --    0.23937   0.24247   0.24338   0.24619   0.24741
 Alpha virt. eigenvalues --    0.24906   0.25102   0.25361   0.25548   0.25820
 Alpha virt. eigenvalues --    0.25998   0.26508   0.26524   0.26701   0.26995
 Alpha virt. eigenvalues --    0.27151   0.27277   0.27345   0.27543   0.27763
 Alpha virt. eigenvalues --    0.27962   0.28080   0.28189   0.28336   0.28560
 Alpha virt. eigenvalues --    0.28637   0.28771   0.28793   0.28988   0.29473
 Alpha virt. eigenvalues --    0.29726   0.29800   0.29979   0.30110   0.30249
 Alpha virt. eigenvalues --    0.30514   0.30666   0.30799   0.31295   0.31656
 Alpha virt. eigenvalues --    0.31667   0.31884   0.32260   0.32541   0.32942
 Alpha virt. eigenvalues --    0.32979   0.33537   0.33619   0.33870   0.34047
 Alpha virt. eigenvalues --    0.34224   0.34545   0.34633   0.34707   0.34962
 Alpha virt. eigenvalues --    0.35238   0.35408   0.35413   0.35623   0.35910
 Alpha virt. eigenvalues --    0.36211   0.36342   0.36575   0.36838   0.36958
 Alpha virt. eigenvalues --    0.37171   0.37357   0.37877   0.37958   0.38132
 Alpha virt. eigenvalues --    0.38303   0.38448   0.38563   0.38775   0.38909
 Alpha virt. eigenvalues --    0.39074   0.39225   0.39457   0.39896   0.39939
 Alpha virt. eigenvalues --    0.40520   0.40614   0.40885   0.40971   0.41229
 Alpha virt. eigenvalues --    0.41407   0.41491   0.41661   0.41757   0.41797
 Alpha virt. eigenvalues --    0.41986   0.42355   0.42660   0.42746   0.42926
 Alpha virt. eigenvalues --    0.42971   0.43132   0.43337   0.43460   0.43648
 Alpha virt. eigenvalues --    0.43802   0.43911   0.43987   0.44099   0.44318
 Alpha virt. eigenvalues --    0.44492   0.44589   0.44793   0.44810   0.45174
 Alpha virt. eigenvalues --    0.45207   0.45257   0.45400   0.45563   0.45591
 Alpha virt. eigenvalues --    0.45804   0.45991   0.46086   0.46213   0.46272
 Alpha virt. eigenvalues --    0.46408   0.46583   0.46643   0.46899   0.46957
 Alpha virt. eigenvalues --    0.47095   0.47260   0.47387   0.47533   0.47727
 Alpha virt. eigenvalues --    0.47813   0.47921   0.48021   0.48225   0.48328
 Alpha virt. eigenvalues --    0.48363   0.48660   0.48703   0.48878   0.49083
 Alpha virt. eigenvalues --    0.49204   0.49296   0.49413   0.49481   0.49650
 Alpha virt. eigenvalues --    0.49807   0.49934   0.50099   0.50209   0.50226
 Alpha virt. eigenvalues --    0.50312   0.50452   0.50735   0.50890   0.50978
 Alpha virt. eigenvalues --    0.51228   0.51275   0.51501   0.51598   0.51791
 Alpha virt. eigenvalues --    0.51887   0.52191   0.52350   0.52389   0.52669
 Alpha virt. eigenvalues --    0.52831   0.53022   0.53219   0.53432   0.53549
 Alpha virt. eigenvalues --    0.53659   0.53792   0.54111   0.54282   0.54328
 Alpha virt. eigenvalues --    0.54482   0.54590   0.54837   0.55067   0.55150
 Alpha virt. eigenvalues --    0.55275   0.55627   0.55734   0.56016   0.56044
 Alpha virt. eigenvalues --    0.56224   0.56415   0.56506   0.56759   0.56869
 Alpha virt. eigenvalues --    0.56981   0.57296   0.57377   0.57571   0.57976
 Alpha virt. eigenvalues --    0.58102   0.58231   0.58631   0.58948   0.59131
 Alpha virt. eigenvalues --    0.59238   0.59391   0.59679   0.59759   0.60145
 Alpha virt. eigenvalues --    0.60187   0.60400   0.60611   0.60868   0.61033
 Alpha virt. eigenvalues --    0.61125   0.61398   0.61579   0.61966   0.62141
 Alpha virt. eigenvalues --    0.62366   0.62680   0.62880   0.63053   0.63371
 Alpha virt. eigenvalues --    0.63623   0.63956   0.64119   0.64337   0.64753
 Alpha virt. eigenvalues --    0.64847   0.65178   0.65505   0.65528   0.66121
 Alpha virt. eigenvalues --    0.66245   0.66956   0.67062   0.67396   0.67642
 Alpha virt. eigenvalues --    0.67936   0.68182   0.68358   0.68935   0.69065
 Alpha virt. eigenvalues --    0.69300   0.69809   0.70243   0.70527   0.70756
 Alpha virt. eigenvalues --    0.70906   0.71594   0.71686   0.71972   0.72095
 Alpha virt. eigenvalues --    0.72467   0.72568   0.72928   0.73235   0.73438
 Alpha virt. eigenvalues --    0.73739   0.74083   0.74274   0.74757   0.74972
 Alpha virt. eigenvalues --    0.75362   0.75552   0.75901   0.76136   0.76261
 Alpha virt. eigenvalues --    0.76473   0.76514   0.77082   0.77294   0.77485
 Alpha virt. eigenvalues --    0.77647   0.78296   0.78472   0.78656   0.78954
 Alpha virt. eigenvalues --    0.79104   0.79487   0.79823   0.79923   0.79957
 Alpha virt. eigenvalues --    0.80438   0.80618   0.81001   0.81359   0.81535
 Alpha virt. eigenvalues --    0.81580   0.82072   0.82284   0.82450   0.82584
 Alpha virt. eigenvalues --    0.82878   0.82925   0.83151   0.83381   0.83670
 Alpha virt. eigenvalues --    0.83905   0.84080   0.84405   0.84611   0.84827
 Alpha virt. eigenvalues --    0.85123   0.85564   0.85622   0.85990   0.86021
 Alpha virt. eigenvalues --    0.86437   0.86567   0.87004   0.87143   0.87324
 Alpha virt. eigenvalues --    0.87641   0.87798   0.88088   0.88154   0.88510
 Alpha virt. eigenvalues --    0.88822   0.88944   0.89236   0.89357   0.89615
 Alpha virt. eigenvalues --    0.90023   0.90045   0.90507   0.90712   0.90854
 Alpha virt. eigenvalues --    0.91312   0.91491   0.91736   0.91927   0.92340
 Alpha virt. eigenvalues --    0.92632   0.92872   0.92971   0.93076   0.93290
 Alpha virt. eigenvalues --    0.93634   0.93692   0.93931   0.94338   0.94683
 Alpha virt. eigenvalues --    0.94712   0.94930   0.95339   0.95484   0.95644
 Alpha virt. eigenvalues --    0.95849   0.96408   0.96555   0.96792   0.97380
 Alpha virt. eigenvalues --    0.97691   0.97840   0.98083   0.98453   0.98597
 Alpha virt. eigenvalues --    0.98907   0.99174   0.99410   0.99531   0.99784
 Alpha virt. eigenvalues --    1.00179   1.00415   1.00587   1.00844   1.01102
 Alpha virt. eigenvalues --    1.01552   1.01728   1.02009   1.02179   1.02319
 Alpha virt. eigenvalues --    1.02515   1.02937   1.03207   1.03290   1.03842
 Alpha virt. eigenvalues --    1.04341   1.04421   1.04793   1.05114   1.05710
 Alpha virt. eigenvalues --    1.05746   1.05937   1.06164   1.06490   1.06707
 Alpha virt. eigenvalues --    1.06756   1.07178   1.07359   1.07473   1.08079
 Alpha virt. eigenvalues --    1.08134   1.08385   1.08639   1.08835   1.08967
 Alpha virt. eigenvalues --    1.09542   1.09853   1.10167   1.10543   1.10700
 Alpha virt. eigenvalues --    1.10876   1.11221   1.11322   1.11420   1.11696
 Alpha virt. eigenvalues --    1.12067   1.12316   1.12405   1.12742   1.12776
 Alpha virt. eigenvalues --    1.13097   1.13409   1.13592   1.13812   1.14117
 Alpha virt. eigenvalues --    1.14215   1.14250   1.14462   1.15098   1.15263
 Alpha virt. eigenvalues --    1.15397   1.15718   1.16050   1.16321   1.16652
 Alpha virt. eigenvalues --    1.16696   1.17035   1.17234   1.17281   1.17715
 Alpha virt. eigenvalues --    1.17956   1.18058   1.18448   1.18541   1.18791
 Alpha virt. eigenvalues --    1.19159   1.19547   1.19616   1.19912   1.20089
 Alpha virt. eigenvalues --    1.20279   1.20423   1.20933   1.21316   1.21493
 Alpha virt. eigenvalues --    1.21727   1.22050   1.22240   1.22592   1.22809
 Alpha virt. eigenvalues --    1.23031   1.23618   1.23936   1.24255   1.24449
 Alpha virt. eigenvalues --    1.24762   1.24913   1.25424   1.25660   1.26158
 Alpha virt. eigenvalues --    1.26272   1.26580   1.26812   1.27213   1.27313
 Alpha virt. eigenvalues --    1.27742   1.27872   1.28288   1.28747   1.28990
 Alpha virt. eigenvalues --    1.29035   1.29487   1.29591   1.30098   1.30253
 Alpha virt. eigenvalues --    1.30837   1.31055   1.31387   1.31706   1.31937
 Alpha virt. eigenvalues --    1.32456   1.32775   1.33107   1.33399   1.33671
 Alpha virt. eigenvalues --    1.34224   1.34596   1.35069   1.35421   1.35701
 Alpha virt. eigenvalues --    1.36344   1.36557   1.36744   1.37407   1.37614
 Alpha virt. eigenvalues --    1.38223   1.38436   1.38863   1.39082   1.40301
 Alpha virt. eigenvalues --    1.40610   1.40727   1.41252   1.41647   1.41811
 Alpha virt. eigenvalues --    1.42236   1.42670   1.43040   1.43230   1.43756
 Alpha virt. eigenvalues --    1.44104   1.44286   1.44739   1.45030   1.45287
 Alpha virt. eigenvalues --    1.45367   1.46022   1.46458   1.46533   1.47149
 Alpha virt. eigenvalues --    1.47240   1.47676   1.47715   1.48365   1.48719
 Alpha virt. eigenvalues --    1.48861   1.49198   1.49322   1.49721   1.49850
 Alpha virt. eigenvalues --    1.49973   1.50164   1.50559   1.50880   1.51084
 Alpha virt. eigenvalues --    1.51538   1.51699   1.51887   1.51992   1.52585
 Alpha virt. eigenvalues --    1.52636   1.53246   1.53340   1.53382   1.53556
 Alpha virt. eigenvalues --    1.53586   1.53804   1.53999   1.54196   1.54343
 Alpha virt. eigenvalues --    1.54589   1.54763   1.55027   1.55263   1.55496
 Alpha virt. eigenvalues --    1.55530   1.55813   1.55825   1.56082   1.56169
 Alpha virt. eigenvalues --    1.56649   1.56764   1.56927   1.57085   1.57258
 Alpha virt. eigenvalues --    1.57443   1.57529   1.57781   1.58282   1.58362
 Alpha virt. eigenvalues --    1.58727   1.58750   1.58945   1.59199   1.59531
 Alpha virt. eigenvalues --    1.59651   1.59833   1.59977   1.60178   1.60290
 Alpha virt. eigenvalues --    1.60508   1.60852   1.61011   1.61184   1.61499
 Alpha virt. eigenvalues --    1.61731   1.61868   1.62118   1.62690   1.62836
 Alpha virt. eigenvalues --    1.63214   1.63326   1.63644   1.63764   1.64041
 Alpha virt. eigenvalues --    1.64277   1.64549   1.65027   1.65048   1.65231
 Alpha virt. eigenvalues --    1.65661   1.65967   1.66333   1.66803   1.66937
 Alpha virt. eigenvalues --    1.67115   1.67233   1.67838   1.68052   1.68320
 Alpha virt. eigenvalues --    1.68733   1.68816   1.69078   1.69389   1.69733
 Alpha virt. eigenvalues --    1.70008   1.70269   1.70568   1.70635   1.70880
 Alpha virt. eigenvalues --    1.71536   1.71603   1.72406   1.72461   1.73088
 Alpha virt. eigenvalues --    1.73250   1.73464   1.73739   1.74118   1.74509
 Alpha virt. eigenvalues --    1.74780   1.75304   1.75637   1.76047   1.76447
 Alpha virt. eigenvalues --    1.76560   1.76944   1.77108   1.77529   1.77876
 Alpha virt. eigenvalues --    1.77924   1.78321   1.78522   1.78612   1.78954
 Alpha virt. eigenvalues --    1.79288   1.79410   1.79688   1.79923   1.80427
 Alpha virt. eigenvalues --    1.80559   1.80709   1.81113   1.81300   1.81569
 Alpha virt. eigenvalues --    1.82161   1.82629   1.82889   1.83369   1.83448
 Alpha virt. eigenvalues --    1.83909   1.84316   1.84524   1.84668   1.84957
 Alpha virt. eigenvalues --    1.85251   1.85581   1.85713   1.85995   1.86215
 Alpha virt. eigenvalues --    1.86800   1.87059   1.87209   1.87458   1.88082
 Alpha virt. eigenvalues --    1.88220   1.88570   1.89254   1.89487   1.89602
 Alpha virt. eigenvalues --    1.89662   1.90151   1.90731   1.90952   1.91157
 Alpha virt. eigenvalues --    1.91592   1.92135   1.92341   1.92367   1.92783
 Alpha virt. eigenvalues --    1.93253   1.93449   1.93552   1.93917   1.94266
 Alpha virt. eigenvalues --    1.94521   1.94749   1.94969   1.95225   1.95424
 Alpha virt. eigenvalues --    1.96015   1.96114   1.96586   1.96649   1.96782
 Alpha virt. eigenvalues --    1.97530   1.97784   1.98129   1.98442   1.98833
 Alpha virt. eigenvalues --    1.99187   1.99380   1.99748   1.99820   2.00196
 Alpha virt. eigenvalues --    2.00950   2.00978   2.01547   2.01951   2.02245
 Alpha virt. eigenvalues --    2.02486   2.02648   2.02893   2.03230   2.03752
 Alpha virt. eigenvalues --    2.03987   2.04289   2.04606   2.04715   2.04876
 Alpha virt. eigenvalues --    2.05145   2.05409   2.05664   2.06048   2.06301
 Alpha virt. eigenvalues --    2.06703   2.06942   2.07133   2.07657   2.07780
 Alpha virt. eigenvalues --    2.08241   2.08526   2.08839   2.09395   2.09690
 Alpha virt. eigenvalues --    2.09899   2.10242   2.10321   2.10751   2.10877
 Alpha virt. eigenvalues --    2.11253   2.11687   2.11919   2.12124   2.12434
 Alpha virt. eigenvalues --    2.12795   2.13197   2.13650   2.13856   2.14186
 Alpha virt. eigenvalues --    2.14697   2.15195   2.15300   2.15698   2.16001
 Alpha virt. eigenvalues --    2.16522   2.16725   2.16992   2.17488   2.17563
 Alpha virt. eigenvalues --    2.17919   2.18133   2.18744   2.18761   2.19204
 Alpha virt. eigenvalues --    2.19690   2.19922   2.20075   2.20409   2.20750
 Alpha virt. eigenvalues --    2.21089   2.21571   2.21897   2.22114   2.22361
 Alpha virt. eigenvalues --    2.22783   2.23118   2.23229   2.23878   2.24017
 Alpha virt. eigenvalues --    2.24232   2.24496   2.24847   2.25143   2.25257
 Alpha virt. eigenvalues --    2.25897   2.26025   2.26265   2.26709   2.27008
 Alpha virt. eigenvalues --    2.27272   2.27613   2.27735   2.27945   2.28172
 Alpha virt. eigenvalues --    2.28443   2.28730   2.29180   2.29485   2.29698
 Alpha virt. eigenvalues --    2.30236   2.30378   2.30646   2.30884   2.31207
 Alpha virt. eigenvalues --    2.31285   2.31557   2.31877   2.32015   2.32304
 Alpha virt. eigenvalues --    2.32463   2.32675   2.32762   2.33151   2.33317
 Alpha virt. eigenvalues --    2.33709   2.34024   2.34187   2.34747   2.34862
 Alpha virt. eigenvalues --    2.34987   2.35023   2.35346   2.36026   2.36183
 Alpha virt. eigenvalues --    2.36384   2.36535   2.36823   2.37082   2.37356
 Alpha virt. eigenvalues --    2.37507   2.38010   2.38310   2.38628   2.38952
 Alpha virt. eigenvalues --    2.39328   2.39589   2.39985   2.40177   2.40250
 Alpha virt. eigenvalues --    2.40568   2.40815   2.40963   2.41274   2.41679
 Alpha virt. eigenvalues --    2.42002   2.42557   2.42685   2.42956   2.43119
 Alpha virt. eigenvalues --    2.43740   2.44001   2.44120   2.44471   2.44791
 Alpha virt. eigenvalues --    2.45242   2.45604   2.45954   2.46308   2.46597
 Alpha virt. eigenvalues --    2.46872   2.47175   2.47749   2.48097   2.48524
 Alpha virt. eigenvalues --    2.48571   2.49403   2.49517   2.49846   2.50032
 Alpha virt. eigenvalues --    2.50231   2.50296   2.51029   2.51371   2.51497
 Alpha virt. eigenvalues --    2.51886   2.52465   2.52502   2.53264   2.53288
 Alpha virt. eigenvalues --    2.53592   2.54001   2.54151   2.54502   2.54694
 Alpha virt. eigenvalues --    2.54960   2.55239   2.55635   2.55857   2.56236
 Alpha virt. eigenvalues --    2.56398   2.56790   2.56882   2.57189   2.57448
 Alpha virt. eigenvalues --    2.57660   2.57742   2.57980   2.58302   2.58594
 Alpha virt. eigenvalues --    2.58771   2.59047   2.59428   2.59576   2.59767
 Alpha virt. eigenvalues --    2.60024   2.60572   2.60613   2.60796   2.61214
 Alpha virt. eigenvalues --    2.61256   2.61861   2.62331   2.62594   2.63042
 Alpha virt. eigenvalues --    2.63354   2.63484   2.63597   2.63829   2.64378
 Alpha virt. eigenvalues --    2.64561   2.64744   2.64837   2.65065   2.65741
 Alpha virt. eigenvalues --    2.66153   2.66306   2.66471   2.67119   2.67385
 Alpha virt. eigenvalues --    2.67714   2.67836   2.68117   2.68222   2.68585
 Alpha virt. eigenvalues --    2.68908   2.69017   2.69135   2.69916   2.70037
 Alpha virt. eigenvalues --    2.70667   2.70730   2.70950   2.71581   2.71926
 Alpha virt. eigenvalues --    2.72283   2.72909   2.72927   2.73432   2.73645
 Alpha virt. eigenvalues --    2.74167   2.74232   2.74820   2.75140   2.75584
 Alpha virt. eigenvalues --    2.75906   2.76153   2.76569   2.76877   2.77388
 Alpha virt. eigenvalues --    2.77572   2.77784   2.78300   2.78684   2.79214
 Alpha virt. eigenvalues --    2.79779   2.79950   2.80207   2.80688   2.81127
 Alpha virt. eigenvalues --    2.81804   2.82175   2.82690   2.83243   2.83514
 Alpha virt. eigenvalues --    2.83672   2.84418   2.84669   2.84836   2.84959
 Alpha virt. eigenvalues --    2.85474   2.85724   2.85951   2.86079   2.86418
 Alpha virt. eigenvalues --    2.86709   2.86928   2.87451   2.87790   2.87964
 Alpha virt. eigenvalues --    2.88012   2.88395   2.88912   2.89133   2.89988
 Alpha virt. eigenvalues --    2.90277   2.90437   2.91158   2.91283   2.91713
 Alpha virt. eigenvalues --    2.91898   2.92387   2.92679   2.92905   2.93203
 Alpha virt. eigenvalues --    2.93662   2.94288   2.94703   2.94928   2.95761
 Alpha virt. eigenvalues --    2.95944   2.96440   2.96710   2.97530   2.97829
 Alpha virt. eigenvalues --    2.97895   2.98199   2.98454   2.98708   2.99210
 Alpha virt. eigenvalues --    2.99573   3.00135   3.00496   3.00636   3.00926
 Alpha virt. eigenvalues --    3.01227   3.01616   3.02000   3.02330   3.02499
 Alpha virt. eigenvalues --    3.02624   3.02867   3.03100   3.03267   3.03557
 Alpha virt. eigenvalues --    3.03860   3.04104   3.04350   3.04614   3.04941
 Alpha virt. eigenvalues --    3.05310   3.05580   3.05876   3.06060   3.06203
 Alpha virt. eigenvalues --    3.06420   3.06542   3.06791   3.06928   3.07321
 Alpha virt. eigenvalues --    3.07523   3.07807   3.08163   3.08329   3.08658
 Alpha virt. eigenvalues --    3.08985   3.09173   3.09362   3.09652   3.09811
 Alpha virt. eigenvalues --    3.09985   3.10583   3.10742   3.10884   3.11022
 Alpha virt. eigenvalues --    3.11236   3.11781   3.11800   3.11888   3.12373
 Alpha virt. eigenvalues --    3.12491   3.12782   3.13168   3.13365   3.13723
 Alpha virt. eigenvalues --    3.14122   3.14492   3.14810   3.14936   3.15110
 Alpha virt. eigenvalues --    3.15644   3.15939   3.16148   3.16435   3.16740
[...]
 523,0.00014724,-0.00000476,-0.00001122,0.00001333,-0.00000926,0.000019
 36,-0.00001101,0.00000534,-0.00001152,-0.00000247,0.00000691,0.0000005
 9,-0.00000701,-0.00000903,-0.00001445,0.00000125,0.00004229,-0.0000099
 7,0.00000090,-0.00003869,0.00003537,0.00001930,-0.00000746,0.00002510,
 -0.00001292,0.00000368,0.00004312,0.00000735,-0.00005802,0.00003291,-0
 .00003159,0.00093735,0.00030267,0.00063686,-0.00028260,-0.00034213,-0.
 00025894,-0.00103010,-0.00005977,-0.00007781,0.00000740,0.00000491,0.0
 0000354,0.00000872,0.00002009,0.00000838,-0.00003101,0.00000541,-0.000
 01948,0.00002937,-0.00002076,0.00000197,-0.00004839,0.00000529,-0.0000
 3119,-0.00000697,-0.00000918,-0.00000584,0.00005174,0.00005949,0.00004
 158,-0.00006449,-0.00002940,-0.00000921,-0.00011611,-0.00007933,-0.000
 04717,-0.00005885,0.00009061,0.00000683,0.00000964,-0.00007278,-0.0000
 1452,0.00005584,-0.00009838,-0.00001889,0.00005997,0.00013259,-0.00002
 555,0.00000694,-0.00002461,-0.00001520,-0.00002847,-0.00007316,-0.0000
 3966,-0.00008112,0.00000012,-0.00002208,-0.00015692,0.00021937,-0.0016
 8636,-0.00015866,-0.00010849,-0.00004355,0.00008336,0.00006521,-0.0000
 4577,0.00002197,-0.00000528,-0.00008579,0.00006806,0.00013499,0.000119
 71,-0.00002598,-0.00010359,0.00034593,0.00246586,0.00190242,-0.0014788
 8,-0.00012067,-0.00019593,-0.00007908,-0.00020314,-0.00008954,0.000074
 16,-0.00003988,-0.00011246,0.00009616,-0.00001482,-0.00001423,0.000000
 89,-0.00002745,-0.00015262,0.00007696,-0.00000662,0.00010162,-0.000175
 00,0.00000263,0.00006197,-0.00011679,0.00003445,0.00018372,-0.00021205
 ,0.00011181,0.00003660,-0.00006470,0.00000334,0.00000124,0.00000270,0.
 00000010,-0.00000406,0.00000116,0.00000053,-0.00000157,-0.00000147,-0.
 00000228,0.00000723,0.00000537,0.00001467,-0.00000637,-0.00001496,0.00
 000243,-0.00000400,0.00000034,-0.00001829,-0.00000975,-0.00000498,0.00
 001029,-0.00000087,-0.00000531,-0.00005070,0.00005040,0.00001730,0.000
 00167,-0.00000905,-0.00001445,0.00000981,-0.00001951,0.00000003,0.0000
 0387,-0.00000184,0.00000855,0.00006590,-0.00001269,0.00004146,0.000001
 36,-0.00000388,0.00000279,-0.00000132,-0.00000342,0.00000147,-0.000004
 98,-0.00000370,-0.00000017,0.00000148,0.00000339,-0.00001775,-0.000001
 87,-0.00000253,-0.00000807,0.00023293,0.00031563,0.00007700,0.00000465
 ,0.00000095,0.00006830,-0.00000692,-0.00004719,-0.00019361,0.00000629,
 0.00006739,-0.00005676,0.00003878,0.00009637,-0.00012884,0.00000112,0.
 00000190,0.00000388,-0.00000433,-0.00000255,0.00000008,-0.00000389,0.0
 0000187,-0.00000674,0.00000058,-0.00000233,0.00000056,-0.00000663,0.00
 001442,-0.00001162,0.00000693,0.00000528,0.00000589,-0.00000493,-0.000
 00648,-0.00001308,0.00000291,-0.00000698,0.00000593,0.00006098,0.00034
 968,0.00082313,-0.00018159,-0.00019687,-0.00000805,-0.00017259,-0.0000
 2184,-0.00034735,0.00064793,-0.00013808,-0.00037413,-0.00000441,0.0000
 0167,0.00000752,0.00000057,0.00000023,-0.00000519,0.00000130,-0.000005
 02,0.00001242,0.00000174,0.00000049,-0.00000405,0.00001453,-0.00001707
 ,-0.00000304,-0.00000544,-0.00000369,-0.00000055,0.00000477,-0.0000043
 1,-0.00000164,0.00000201,-0.00000614,0.00000160,-0.00000979,0.00000295
 ,0.00000387,-0.00000846,-0.00000923,-0.00000081,0.00000566,0.00000243,
 0.,0.00000347,0.00000077,-0.00000066,-0.00001304,-0.00002901,0.0000034
 9,0.00000364,0.00001292,-0.00000105,-0.00001106,0.00000548,0.00000446,
 0.00000326,-0.00000168,-0.00000091,-0.00000267,-0.00000172,-0.00000160
 ,0.00000033,0.00000610,-0.00000109,-0.00005400,0.00003444,0.00001079,0
 .00001794,-0.00001412,0.00000310,-0.21235266,-0.11571476,-0.25408303,0
 .19940809,0.10484733,0.24699895,-0.00011204,0.00003131,-0.00003943,-0.
 00127471,0.00107806,-0.00041844,-0.00008014,-0.00087507,0.00038085,0.0
 0041137,-0.00058404,0.00168684,-0.00000255,0.00000394,-0.00000924,0.00
 017999,-0.00010608,0.00011061,-0.00010647,0.00003848,-0.00002259,-0.00
 010199,0.00009857,-0.00017003,-0.00005377,-0.00003227,0.00005735,0.000
 04450,-0.00000108,-0.00001837,0.00000207,0.00001220,0.00000255,-0.0000
 1186,0.00000918,0.00000357,0.00002535,0.00001810,-0.00000405,-0.000047
 08,-0.00000029,-0.00000253,0.00004091,-0.00004253,-0.00003160,0.000068
 59,-0.00003462,-0.00006239,-0.00002002,-0.00003330,0.00002575,-0.00007
 776,-0.00000250,0.00003271,0.00010076,0.00121878,0.00094037,-0.0000482
 4,-0.00050395,-0.00071927,-0.00047756,-0.00024177,-0.00041164,-0.00002
 064,-0.00000611,-0.00001688,-0.00000525,-0.00002189,-0.00002890,0.0000
 5248,-0.00000072,0.00001795,-0.00004632,0.00003531,-0.00001159,0.00007
 439,0.00001575,0.00001171,0.00001103,0.00000407,0.00000387,-0.00007679
 ,-0.00002190,0.00002597,0.00012301,0.00004136,-0.00005704,0.00011210,0
 .00005433,0.00002086,0.00028659,-0.00011509,0.00014198,-0.00016085,-0.
 00000108,-0.00006973,-0.00020219,0.00022844,-0.00005998,0.00042940,-0.
 00011230,0.00004947,-0.00004515,0.00004206,-0.00012405,-0.00012431,0.0
 0043923,-0.00006442,-0.00016299,0.00006017,0.00003797,-0.00429078,0.00
 141501,-0.00448055,-0.00015361,0.00020621,-0.00022723,-0.00003066,-0.0
 0010330,-0.00012498,-0.00015013,-0.00003832,0.00011048,-0.00007468,-0.
 00033520,0.00025538,-0.00128231,-0.00204930,0.00202114,0.00329390,0.00
 135591,0.00046891,-0.00046998,-0.00011343,0.00019205,-0.00043784,-0.00
 004233,-0.00033525,-0.00021004,0.00004519,0.00005393,0.00001601,-0.000
 01867,0.00006065,-0.00039653,-0.00095474,-0.00042482,0.00015589,0.0006
 1493,-0.00018638,0.00038203,0.00080916,0.00020550,0.00002507,0.0000230
 3,0.00004114,-0.00010657,0.00000102,-0.00003013,-0.00000309,0.00000082
 ,-0.00000222,-0.00000416,0.00000258,-0.00000133,0.00000150,0.00000102,
 0.00001067,0.00000325,-0.00000602,-0.00001373,-0.00000511,0.00000823,0
 .00002514,-0.00000411,0.00000066,0.00000706,-0.00004638,0.00001411,-0.
 00001448,-0.00001723,0.00000676,0.00000236,0.00005553,0.00004702,0.000
 01653,0.00004366,-0.00002649,-0.00005433,-0.00001529,0.00003520,0.0000
 0513,-0.00001708,-0.00000850,0.00000345,-0.00005878,-0.00002727,0.0000
 2265,-0.00001131,0.00000171,0.00001098,0.00000457,0.00000537,-0.000005
 14,0.00000142,0.00000381,0.00000182,0.00001173,-0.00003200,-0.00006136
 ,-0.00001464,0.00000556,0.00001522,0.00030212,0.00028534,-0.00016378,0
 .00033686,-0.00000623,-0.00010460,0.00005450,-0.00004181,-0.00017358,0
 .00010127,-0.00013347,0.00001121,0.00010813,0.00006330,-0.00014056,-0.
 00000410,-0.00000713,-0.00000438,0.00001278,0.00000458,-0.00000194,0.0
 0000372,-0.00000231,0.00001113,-0.00000300,0.00000452,0.00000154,0.000
 03553,-0.00002876,-0.00001678,-0.00000877,0.00001951,-0.00000263,0.000
 00603,0.00001448,0.00003232,-0.00001766,0.00002546,-0.00000068,-0.0001
 9041,0.00001906,-0.00012182,0.00001671,0.00001637,0.00004064,0.0000546
 6,0.00002716,0.00001687,-0.00000575,-0.00023205,0.00011073,0.00000936,
 0.00000119,-0.00000862,-0.00000372,-0.00000296,0.00000299,-0.00000323,
 0.00000545,-0.00001305,-0.00000138,0.00000122,0.00000444,-0.00002370,0
 .00002224,-0.00000703,0.00000229,-0.00000286,-0.00000026,-0.00000583,0
 .00001114,0.00000736,-0.00000356,0.00001418,-0.00000402,0.00001036,-0.
 00000621,-0.00000250,0.00001143,0.00001171,0.00000131,-0.00000610,-0.0
 0000643,-0.00000031,-0.00000616,0.00000211,-0.00000190,-0.00002002,0.0
 0006861,0.00002880,-0.00000432,-0.00001807,-0.00000171,0.00001171,-0.0
 0000838,-0.00000604,-0.00001090,0.00000824,-0.00000652,0.00000337,0.00
 000352,-0.00000253,-0.00000082,-0.00000942,0.00000040,0.00004808,-0.00
 002853,-0.00001893,-0.00001794,0.00000397,0.00001234,-0.08235894,-0.11
 919050,0.04352264,-0.01352388,-0.02805076,0.01121405,0.10019311,-0.000
 09788,0.00025656,-0.00008613,-0.00030913,0.00127778,-0.00008725,-0.000
 25179,-0.00127771,0.00029494,0.00014254,-0.00123896,0.00172023,-0.0000
 0451,0.00001170,-0.00002397,0.00021315,-0.00017052,0.00024934,-0.00009
 506,0.00007058,-0.00012770,-0.00011385,0.00015245,-0.00032673,0.000222
 79,0.00019014,-0.00017456,-0.00011448,-0.00016674,0.00005980,0.0000149
 8,0.00005762,-0.00000625,0.00000300,-0.00003789,0.00004020,0.00009221,
 0.00004539,0.00004009,-0.00021527,0.00003273,-0.00002867,0.00023629,-0
 .00022740,-0.00008457,-0.00011546,-0.00008688,0.00017580,0.00004431,-0
 .00003491,0.00002805,0.00013949,0.00000356,-0.00014225,0.00169006,0.00
 115631,-0.00007221,0.00001842,-0.00158412,-0.00016895,-0.00081645,-0.0
 0093700,0.00062120,-0.00001948,-0.00001710,-0.00001787,-0.00003269,-0.
 00007817,-0.00004873,0.00010394,-0.00006282,0.00005332,-0.00008630,0.0
 0010319,0.00002551,0.00015646,-0.00001090,0.00010836,0.00001327,0.0000
 4888,0.00002905,-0.00013561,-0.00016364,-0.00013429,0.00023059,0.00007
 502,-0.00000778,0.00053686,0.00029131,0.00015953,0.00041130,-0.0002304
 9,0.00018070,-0.00018835,0.00005381,-0.00009669,-0.00030877,0.00035873
 ,0.00001896,0.00037676,-0.00012981,0.00020249,-0.00009552,0.00012124,-
 0.00001650,0.00011428,0.00005412,-0.00007196,0.00071428,0.00028761,-0.
 00038009,0.00299736,-0.00018614,-0.01026914,-0.00019550,-0.00019579,-0
 .00021716,-0.00040204,-0.00044232,-0.00013945,-0.00026030,0.00036926,0
 .00038624,-0.00007206,-0.00039651,-0.00036545,-0.00492151,-0.00101982,
 0.00171014,0.00238890,0.00407398,0.00163364,-0.00034186,-0.00005457,-0
 .00006966,-0.00050316,-0.00026899,-0.00090235,-0.00022777,0.00003027,-
 0.00003566,0.00005103,0.00000577,0.00003166,-0.00019040,-0.00019024,-0
 .00044526,0.00004512,0.00009628,0.00038319,0.00054280,0.00012270,0.000
 36407,0.00000132,-0.00008358,0.00010457,-0.00001633,-0.00006038,0.0000
 1703,-0.00000638,-0.00000264,-0.00001130,-0.00000597,0.00000906,-0.000
 00294,-0.00001080,-0.00001709,-0.00000879,0.00000759,-0.00003459,-0.00
 001039,-0.00004593,0.00006005,0.00000337,-0.00001024,0.00003295,0.0000
 0119,0.00004334,0.00003944,-0.00000504,-0.00007737,-0.00001239,0.00003
 358,0.00013041,-0.00026830,0.00000603,-0.00002596,-0.00002382,0.000049
 03,0.00001611,0.00001083,-0.00002294,-0.00002501,-0.00000327,-0.000022
 64,-0.00023740,0.00010191,-0.00013445,0.00001682,0.00001119,-0.0000245
 7,0.00000611,0.00001104,-0.00000779,0.00002075,0.00001427,0.00000211,-
 0.00005638,0.00003173,0.00000414,0.00003422,0.00002905,0.00002457,0.00
 035880,0.00024147,0.00009322,0.00013299,-0.00015710,0.00008885,0.00000
 668,0.00006521,-0.00016054,0.00010734,-0.00014193,0.00002748,0.0001194
 0,0.00006102,-0.00006659,-0.00000104,-0.00000270,-0.00001066,0.0000101
 5,0.00000721,-0.00000108,0.00000825,-0.00000309,0.00001807,-0.00000222
 ,-0.00000126,-0.00000362,-0.00000028,-0.00003586,0.00003087,-0.0000103
 9,-0.00000931,-0.00002075,0.00001748,0.00001982,0.00004795,-0.00000100
 ,-0.00000827,-0.00002277,0.00003189,-0.00000158,-0.00024691,-0.0000555
 8,-0.00004718,-0.00005849,0.00015991,-0.00002916,0.00011559,-0.0004829
 5,0.00001871,0.00013292,0.00001689,-0.00000040,-0.00001793,-0.00000574
 ,-0.00000272,0.00000988,-0.00000490,0.00001252,-0.00003021,-0.00000221
 ,-0.00000299,0.00000925,-0.00004966,0.00004090,-0.00000795,0.00001132,
 0.00000134,0.00000103,-0.00000824,0.00000947,0.00000813,-0.00000724,0.
 00002640,-0.00000920,0.00004346,-0.00000900,-0.00000957,0.00002608,0.0
 0003380,0.00000432,-0.00001897,-0.00000755,-0.00000187,-0.00001150,-0.
 00000288,0.00000221,0.00000350,-0.00002160,-0.00009243,0.00001506,-0.0
 0003110,0.00001567,-0.00000660,0.00002036,0.00000478,-0.00001007,-0.00
 001641,0.00000886,-0.00000337,0.00000494,0.00001234,0.00000863,-0.0000
 2159,0.00000302,0.00019499,-0.00017819,-0.00003687,-0.00005312,0.00007
 039,-0.00003675,-0.13785136,-0.26935859,0.12525574,-0.00943218,-0.0160
 9705,0.01101827,0.14560197,0.28557098,0.00014958,-0.00022667,0.0000526
 6,-0.00098630,0.00031127,0.00043682,0.00048486,0.00013187,-0.00021671,
 0.00147376,0.00041888,-0.00095165,0.00000725,-0.00001049,0.00003157,-0
 .00030303,0.00022973,-0.00030718,0.00014296,-0.00010255,0.00013656,0.0
 0016153,-0.00021662,0.00041098,-0.00008936,-0.00009650,0.00008877,0.00
 001780,0.00010853,-0.00004840,-0.00000460,-0.00005511,-0.00000290,0.00
 000862,0.00002803,-0.00003007,-0.00010153,-0.00006285,-0.00002238,0.00
 023172,-0.00002113,0.00002596,-0.00026194,0.00024251,0.00010807,0.0000
 2019,0.00008043,-0.00009147,0.00001371,0.00008935,0.00004841,-0.000044
 36,0.00006816,0.00000448,0.00072039,-0.00074247,0.00011076,-0.00045383
 ,0.00072677,0.00000126,-0.00058651,0.00063233,-0.00004301,0.00001448,0
 .00002846,0.00000365,0.00004544,0.00009186,0.00002141,-0.00012066,0.00
 002589,-0.00008229,0.00011493,-0.00009934,-0.00000573,-0.00019289,0.00
 003770,-0.00014703,-0.00002471,-0.00004913,-0.00002898,0.00017885,0.00
 024595,0.00020666,-0.00030114,-0.00014531,-0.00005173,-0.00062135,-0.0
 0040045,-0.00020416,-0.00057776,0.00032484,-0.00022511,0.00026651,-0.0
 0010755,0.00009782,0.00045088,-0.00055052,-0.00006314,-0.00055127,0.00
 027291,-0.00018681,0.00012859,-0.00015344,-0.00009326,0.00019498,-0.00
 067246,-0.00017651,-0.00101848,-0.00065594,0.00069340,-0.00407772,-0.0
 0598324,0.00642675,0.00036065,-0.00004099,0.00006608,0.00032630,0.0004
 6635,0.00010435,0.00028572,-0.00023642,-0.00059270,0.00014851,0.000824
 64,0.00099433,0.00551189,0.00241972,-0.00060982,-0.00248352,-0.0018124
 4,-0.00525623,0.00050407,-0.00008343,-0.00021759,0.00038847,0.00010325
 ,0.00061024,0.00025277,-0.00012303,0.00005966,-0.00014866,-0.00018970,
 0.00006743,-0.00032138,-0.00110616,0.00056936,-0.00000404,0.00066783,-
 0.00120077,0.00015087,0.00041863,-0.00089901,0.00000393,0.00006593,-0.
 00012091,0.00011086,0.00004977,-0.00004298,0.00000892,0.00000155,0.000
 01109,0.00000661,-0.00001082,0.00000377,0.00000524,0.00000830,-0.00000
 360,-0.00001009,0.00003337,0.00002006,0.00004248,-0.00004850,-0.000034
 13,0.00001249,-0.00002729,0.00000271,-0.00004600,-0.00002686,-0.000009
 66,0.00005606,-0.00000250,-0.00002689,-0.00008525,0.00013778,-0.000007
 39,-0.00003035,0.00002006,-0.00002161,0.00001415,-0.00004610,0.0000039
 4,0.00000977,-0.00001640,0.00005124,0.00031065,-0.00008780,0.00022972,
 -0.00000245,-0.00001634,0.00001888,-0.00000937,-0.00001486,0.00000606,
 -0.00002782,-0.00001861,0.00000078,-0.00003454,0.00000619,-0.00017521,
 0.00000880,0.00000510,-0.00005203,-0.00024230,-0.00005679,0.00012220,-
 0.00038352,0.00011038,0.00019938,-0.00003282,-0.00003357,0.00005131,-0
 .00012496,0.00018412,-0.00006773,-0.00010710,-0.00000369,0.00004664,0.
 00000098,0.00000677,0.00001493,-0.00001061,-0.00000922,-0.00000278,-0.
 00001795,0.00000721,-0.00002345,0.00000007,-0.00000989,0.00000463,-0.0
 0001183,0.00008893,-0.00011751,0.00004473,0.00006361,0.00003694,-0.000
 02110,-0.00004012,-0.00004857,0.00000734,-0.00004884,0.00003076,0.0000
 8953,-0.00002392,0.00030742,0.00004487,0.00003096,0.00007690,-0.000129
 81,0.00005664,-0.00012985,0.00022938,0.00004180,-0.00031420,-0.0000204
 3,0.00000137,0.00002240,0.00000644,0.00000347,-0.00001216,0.00000639,-
 0.00001536,0.00003798,0.00000423,0.00000125,-0.00001260,0.00007175,-0.
 00006102,0.00001748,-0.00001693,-0.00000582,0.00000262,0.00002349,-0.0
 0002730,-0.00001021,0.00001167,-0.00003845,0.00000413,-0.00005457,0.00
 001323,0.00001790,-0.00003260,-0.00004265,-0.00000521,0.00002419,0.000
 00926,-0.00000037,0.00001466,0.00000265,-0.00000259,-0.00002094,-0.000
 04063,0.00003401,0.00000370,0.00003760,-0.00000579,-0.00002278,0.00000
 391,0.00001093,0.00001423,0.00000668,-0.00000340,-0.00000321,-0.000006
 94,-0.00000753,-0.00000476,0.00002432,-0.00000463,-0.00022230,0.000182
 54,0.00004755,0.00006641,-0.00005578,0.00002420,0.07233738,0.16235979,
 -0.11902732,-0.01835521,-0.02774207,0.00870751,-0.05299101,-0.13003832
 ,0.11050147\\0.00000154,0.00000014,-0.00000191,-0.00001102,0.00001214,
 -0.00000846,0.00000138,-0.00000633,0.00000152,0.00000942,0.00000156,0.
 00000240,0.00000143,-0.00000297,0.00000019,-0.00000387,0.00000490,-0.0
 0000361,-0.00000165,-0.00000138,-0.00000060,0.00000773,-0.00000314,0.0
 0000634,-0.00000152,-0.00000115,-0.00000046,0.00000102,-0.00000012,0.0
 0000165,-0.00000269,0.00000281,0.00000174,0.00000705,-0.00000080,0.000
 00056,-0.00000321,0.00000530,-0.00000286,-0.00000004,0.,-0.00000593,0.
 00000597,-0.00000050,0.00001044,-0.00000008,-0.00000046,-0.00000154,0.
 00000085,-0.00000131,-0.00000065,-0.00000006,-0.00000186,-0.00000137,0
 .00000355,0.00001204,0.00000227,0.00000531,-0.00001084,-0.00000283,-0.
 00000036,-0.00000234,-0.00000002,-0.00000048,-0.00000116,0.00000128,-0
 .00000024,-0.00000108,-0.00000209,0.00000008,-0.00000019,0.00000296,-0
 .00000054,-0.00000037,-0.00000036,0.00000140,0.00000429,0.00000134,-0.
 00000087,0.00000147,-0.00000017,0.00000137,-0.00000551,0.00000585,0.00
 000212,0.00001019,-0.00000270,-0.00000099,0.00000061,0.00000080,0.0000
 0126,0.00000283,0.00000179,-0.00000226,0.,-0.00000027,0.00000508,-0.00
 000205,-0.00000207,0.00000118,-0.00001262,0.00000467,0.00000191,0.0000
 0349,-0.00000320,0.00000245,-0.00000491,-0.00000332,0.00000423,-0.0000
 1023,-0.00000209,0.00000503,0.00000838,0.00000605,-0.00000793,0.000000
 38,0.00001531,0.00000675,0.00000717,-0.00000744,-0.00000521,-0.0000057
 1,-0.00001049,-0.00000768,-0.00000065,0.00000902,-0.00001281,0.0000058
 6,-0.00001177,-0.00000942,-0.00000807,-0.00000993,-0.00000022,-0.00000
 038,0.00000151,0.00000463,0.00000132,-0.00000487,-0.00000072,0.0000027
 0,-0.00000145,-0.00000184,-0.00000170,0.00000289,-0.00000503,-0.000010
 68,-0.00000330,0.00000698,0.00000582,-0.00000077,-0.00000201,0.0000060
 5,0.00000473,-0.00000017,-0.00000039,-0.00000171,-0.00000055,-0.000000
 26,-0.00000048,0.00000112,0.00000061,-0.00000005,0.00000077,0.00000019
 ,0.00000020,0.00000044,0.00000048,0.00000034,0.00000165,-0.00000036,0.
 00000015,0.00000044,-0.00000092,0.,0.00000075,-0.00000106,0.00000269,0
 .00000016,0.00000007,0.00000034,-0.00000040,0.00000026,0.00000062,-0.0
 0000047,-0.00000010,-0.00000001,0.00000027,0.00000038,0.00000015,0.000
 00098,0.00000012,0.00000099,-0.00000080,-0.00000009,0.00000110,-0.0000
 0233,0.00000089,-0.00000002,-0.00000008,0.00000048,0.00000020,0.000000
 02,-0.00000015,0.00000095,0.00000027,-0.00000062,0.00000119,-0.0000002
 3,0.00000068,-0.00000065,0.00000005,0.00000129,-0.00000049,0.00000132,
 0.00000117,-0.00000067,-0.00000142,0.00000023,-0.00000080,-0.00000167,
 0.00000021,0.00000207,0.00000091,-0.00000124,-0.00000070,0.00000036,0.
 00000019,0.00000144,-0.00000086,-0.00000020,0.00000061,-0.00000018,0.0
 0000011,0.00000081,-0.00000049,-0.00000030,0.00000121,-0.00000052,-0.0
 0000007,0.00000096,0.00000020,0.00000042,0.00000059,-0.00000058,-0.000
 00005,-0.00000010,-0.00000141,-0.00000006,-0.00000020,-0.00000143,0.00
 000012,0.00000031,-0.00000091,-0.00000122,-0.00000120,-0.00000010,0.00
 000027,-0.00000101,-0.00000048,0.00000057,-0.00000132,-0.00000041,0.00
 000008,-0.00000059,0.00000017,0.00000186,-0.00000129,0.00000075,-0.000
 00024,-0.00000062,0.00000131,-0.00000021,0.00000024,0.00000133,-0.0000
 0099,0.00000003,-0.00000216,-0.00000023,-0.00000519,0.00000004,-0.0000
 0069,0.00000096,0.00000060,0.00000050,0.00000120,-0.00000032,-0.000000
 62,0.00000043,0.00000065,-0.00000179,0.00000061,0.00000005,0.00000001,
 0.00000093,0.,0.00000006,0.00000052,0.00000013,0.00000058,0.00000026,-
 0.00000065,0.00000247,0.00000040,-0.00000079,-0.00000059,0.00000072,0.
 00000022,-0.00000101,0.00000079,0.00000365,-0.00000252,0.00000313,0.00
 000036,-0.00000018,0.00000049,-0.00000050,0.00000002,0.00000001,-0.000
 00393,0.00000011,0.00000170,0.00000041,0.00000108,-0.00000186,-0.00000
 097,0.00000141,-0.00000117,-0.00000129,-0.00000056,-0.00000108,-0.0000
 0029,-0.00000116,0.00000307\\\@


 A DANDELION FROM A LOVER MEANS MORE THAN AN ORCHID FROM A FRIEND.
 Job cpu time:      20 days 20 hours 50 minutes 41.4 seconds.
 File lengths (MBytes):  RWF=  82794 Int=      0 D2E=      0 Chk=    501 Scr=      4
 Normal termination of Gaussian 09 at Thu Dec 17 13:46:39 2020.
real 90521.27
user 1792992.80
sys 10048.71
Machine:
halstead-a474
halstead-a474
halstead-a474
halstead-a474
halstead-a474
halstead-a474
halstead-a474
halstead-a474
halstead-a474
halstead-a474
halstead-a474
halstead-a474
halstead-a474
halstead-a474
halstead-a474
halstead-a474
halstead-a474
halstead-a474
halstead-a474
halstead-a474
