 Entering Gaussian System, Link 0=/apps/rhel6/g09-E.01/g09/g09
 Initial command:
 /apps/rhel6/g09-E.01/g09/l1.exe "/scratch/halstead/y/ypushkar/gaussian/Gau-1119.inp" -scrdir="/scratch/halstead/y/ypushkar/gaussian/"
 Entering Link 1 = /apps/rhel6/g09-E.01/g09/l1.exe PID=      1120.
  
 Copyright (c) 1988,1990,1992,1993,1995,1998,2003,2009,2015,
            Gaussian, Inc.  All Rights Reserved.
  
 This is part of the Gaussian(R) 09 program.  It is based on
 the Gaussian(R) 03 system (copyright 2003, Gaussian, Inc.),
 the Gaussian(R) 98 system (copyright 1998, Gaussian, Inc.),
 the Gaussian(R) 94 system (copyright 1995, Gaussian, Inc.),
 the Gaussian 92(TM) system (copyright 1992, Gaussian, Inc.),
 the Gaussian 90(TM) system (copyright 1990, Gaussian, Inc.),
 the Gaussian 88(TM) system (copyright 1988, Gaussian, Inc.),
 the Gaussian 86(TM) system (copyright 1986, Carnegie Mellon
 University), and the Gaussian 82(TM) system (copyright 1983,
 Carnegie Mellon University). Gaussian is a federally registered
 trademark of Gaussian, Inc.
  
 This software contains proprietary and confidential information,
 including trade secrets, belonging to Gaussian, Inc.
  
 This software is provided under written license and may be
 used, copied, transmitted, or stored only in accord with that
 written license.
  
 The following legend is applicable only to US Government
 contracts under FAR:
  
                    RESTRICTED RIGHTS LEGEND
  
 Use, reproduction and disclosure by the US Government is
 subject to restrictions as set forth in subparagraphs (a)
 and (c) of the Commercial Computer Software - Restricted
 Rights clause in FAR 52.227-19.
  
 Gaussian, Inc.
 340 Quinnipiac St., Bldg. 40, Wallingford CT 06492
  
  
 ---------------------------------------------------------------
 Warning -- This program may not be used in any manner that
 competes with the business of Gaussian, Inc. or will provide
 assistance to any competitor of Gaussian, Inc.  The licensee
 of this program is prohibited from giving any competitor of
 Gaussian, Inc. access to this program.  By using this program,
 the user acknowledges that Gaussian, Inc. is engaged in the
 business of creating and licensing software in the field of
 computational chemistry and represents and warrants to the
 licensee that it is not a competitor of Gaussian, Inc. and that
 it will not use this program in any manner prohibited above.
 ---------------------------------------------------------------
  

 Cite this work as:
 Gaussian 09, Revision E.01,
 M. J. Frisch, G. W. Trucks, H. B. Schlegel, G. E. Scuseria, 
 M. A. Robb, J. R. Cheeseman, G. Scalmani, V. Barone, B. Mennucci, 
 G. A. Petersson, H. Nakatsuji, M. Caricato, X. Li, H. P. Hratchian, 
 A. F. Izmaylov, J. Bloino, G. Zheng, J. L. Sonnenberg, M. Hada, 
 M. Ehara, K. Toyota, R. Fukuda, J. Hasegawa, M. Ishida, T. Nakajima, 
 Y. Honda, O. Kitao, H. Nakai, T. Vreven, J. A. Montgomery, Jr., 
 J. E. Peralta, F. Ogliaro, M. Bearpark, J. J. Heyd, E. Brothers, 
 K. N. Kudin, V. N. Staroverov, T. Keith, R. Kobayashi, J. Normand, 
 K. Raghavachari, A. Rendell, J. C. Burant, S. S. Iyengar, J. Tomasi, 
 M. Cossi, N. Rega, J. M. Millam, M. Klene, J. E. Knox, J. B. Cross, 
 V. Bakken, C. Adamo, J. Jaramillo, R. Gomperts, R. E. Stratmann, 
 O. Yazyev, A. J. Austin, R. Cammi, C. Pomelli, J. W. Ochterski, 
 R. L. Martin, K. Morokuma, V. G. Zakrzewski, G. A. Voth, 
 P. Salvador, J. J. Dannenberg, S. Dapprich, A. D. Daniels, 
 O. Farkas, J. B. Foresman, J. V. Ortiz, J. Cioslowski, 
 and D. J. Fox, Gaussian, Inc., Wallingford CT, 2013.
 
 ******************************************
 Gaussian 09:  ES64L-G09RevE.01 30-Nov-2015
                 8-Dec-2020 
 ******************************************
 %chk=OEC_S1_1d2prime_BP86_Carter1_freq_18O6.chk
 %nprocshared=8
 Will use up to    8 processors via shared memory.
 %mem=50GB
 ----------------------------
 # freq(raman) def2tzvp ubp86
 ----------------------------
 1/10=4,30=1,38=1/1,3;
 2/12=2,17=6,18=5,40=1/2;
 3/5=44,7=101,11=2,16=1,25=1,30=1,71=2,74=404,116=2,140=1/1,2,3;
 4//1;
 5/5=2,38=5,98=1/2;
 8/6=4,10=90,11=11/1;
 10/13=10,15=4/2;
 11/6=3,8=1,9=11,15=111,16=1/1,2,10;
 10/6=1/2;
 6/7=2,8=2,9=2,10=2,18=1,28=1/1;
 7/8=1,10=1,25=1/1,2,3,16;
 1/10=4,30=1/3;
 99//99;
 -------------------
 Title Card Required
 -------------------
 Symbolic Z-matrix:
 Charge = -1 Multiplicity = 3
 Mn                   -1.2218   -3.03726  -0.77766 
 Mn                   -0.57994  -0.49633  -1.37946 
 Mn                   -1.34671   2.03706  -0.4903 
 Mn                    0.18644   1.01957   1.55963 
 Ca                   -3.02699  -0.30881   0.983 
 O(Iso=18)            -1.02566  -1.53696   0.1568 
 O                    -1.17113  -1.96507  -2.26704 
 O                    -2.15335   0.58203  -1.08802 
 O                    -1.52229   1.55899   1.28671 
 O                     0.29767   0.98336  -0.33236 
 H                    -4.7376   -4.35876  -3.28614 
 C                    -5.37708  -4.54771  -2.41058 
 H                    -6.34548  -4.91892  -2.78161 
 C                    -5.56753  -3.28136  -1.57743 
 C                    -4.30413  -2.64643  -0.98161 
 O                    -4.41567  -1.53225  -0.44235 
 O                    -3.22029  -3.34649  -1.07013 
 C                     0.0248    1.03325   6.28038 
 C                    -1.28974   0.66606   5.59273 
 C                    -1.20243   0.37727   4.09032 
 O                    -2.18486  -0.17486   3.5333 
 O                    -0.11424   0.73238   3.50701 
 H                     6.32415  -2.19944   3.08865 
 C                     5.74261  -2.88143   2.45283 
 C                     6.04946  -2.49117   1.00666 
 C                     4.23595  -2.79225   2.79739 
 C                     3.53173  -1.53486   2.3636 
 N                     4.17179  -0.36203   1.98072 
 C                     2.18589  -1.25114   2.28118 
 C                     3.2261    0.55753   1.6639 
 N                     2.01325   0.04874   1.84922 
 N                     5.69921  -3.40184   0.05713 
 C                     5.52228  -3.03443  -1.3544 
 H                     6.31867  -2.32052  -1.60256 
 C                     4.14688  -2.40331  -1.62781 
 C                     2.97535  -3.33194  -1.30603 
 C                     1.60434  -2.64536  -1.21894 
 O                     1.4917   -1.43051  -1.48037 
 O                     0.67152  -3.45783  -0.84866 
 C                     5.74452   3.87787  -2.0841 
 C                     4.57212   2.94744  -2.05474 
 N                     4.44407   1.91177  -2.96323 
 C                     3.48609   2.95151  -1.19599 
 C                     3.30002   1.31     -2.648 
 N                     2.68296   1.90073  -1.58872 
 H                     0.84711   7.40894   0.66308 
 C                     0.50705   6.41373   0.33529 
 H                    -0.58774   6.42696   0.25056 
 C                     0.9641    5.33635   1.31736 
 C                     0.50968   3.91184   0.98149 
 O                    -0.35482   3.77648   0.06672 
 O                     1.03821   2.97722   1.67424 
 C                    -4.08969   2.83632   0.01652 
 O                    -4.35202   1.78188   0.64866 
 O                    -2.96746   3.14466  -0.52744 
 C                    -0.70907   3.74255  -4.89561 
 C                    -0.16849   2.33528  -4.64837 
 C                    -0.42137   1.77691  -3.24923 
 O                    -0.88627   2.57757  -2.37603 
 O                    -0.11829   0.5523   -3.07523 
 O                     6.53826  -1.3859    0.73271 
 H                    -4.91237  -5.35075  -1.82065 
 H                     5.22418  -4.24044   0.37954 
 H                     1.79077   1.59332  -1.14309 
 H                    -6.05927  -2.48996  -2.16448 
 H                    -6.23781  -3.47464  -0.72293 
 H                     5.66991   4.63222  -1.2871 
 H                     6.69226   3.33085  -1.95131 
 H                     3.20918   3.60665  -0.37584 
 H                     2.86837   0.44549  -3.14452 
 H                     3.4441    1.5541    1.29475 
 H                     1.33636  -1.89525   2.48441 
 H                     5.16816  -0.29752   1.74361 
 H                     5.67612  -3.94339  -1.95762 
 C                    -5.19155   3.87823  -0.14507 
 H                    -4.83671   4.75676  -0.69635 
 H                    -6.03878   3.42061  -0.6768 
 H                    -5.55351   4.18165   0.84843 
 H                    -1.79962   3.77778  -4.76242 
 H                    -0.27205   4.46271  -4.19116 
 H                    -0.58984   1.60784  -5.36049 
 H                     0.92401   2.30103  -4.79988 
 H                     0.75125   0.2101    6.21473 
 H                    -1.76417  -0.20898   6.06434 
 H                     0.48406   1.91201   5.80841 
 H                    -2.01974   1.48839   5.69677 
 H                     4.13889  -2.91687   3.8901 
 H                     6.0911   -3.90509   2.66567 
 H                     3.69859  -3.64754   2.35642 
 H                     0.9068    6.22708  -0.67139 
 H                     0.58241   5.54367   2.33237 
 H                     2.06154   5.31884   1.41805 
 H                     4.05782  -1.47698  -1.04235 
 H                     3.11409  -3.83331  -0.33334 
 H                     2.88743  -4.14479  -2.04701 
 H                     4.10869  -2.09219  -2.68304 
 O                    -3.01129  -2.52648   2.17856 
 H                    -2.5535   -2.21328   2.98039 
 O                    -1.40997  -4.62656  -2.37368 
 H                    -2.37438  -3.16459   1.71398 
 O                    -1.41954  -4.17317   0.76107 
 H                    -4.89153   1.0778    2.32664 
 O                    -4.82231   0.2191    2.80203 
 H                    -4.06407   0.30145   3.42177 
 H                    -1.1547   -3.90006  -2.98876 
 H                    -2.38765  -4.51104  -2.29656 
 H                    -2.02808  -4.89972   0.53487 
 H                    -0.14309   1.25576   7.34596 
 H                     5.81022   4.4062   -3.04931 
 H                    -0.4742    4.07082  -5.92038 
 

 GradGradGradGradGradGradGradGradGradGradGradGradGradGradGradGradGradGrad
 Berny optimization.
 Initialization pass.
 Trust Radius=3.00D-01 FncErr=1.00D-07 GrdErr=1.00D-07
 Number of steps in this run=      2 maximum allowed number of steps=      2.
 GradGradGradGradGradGradGradGradGradGradGradGradGradGradGradGradGradGrad

 Stoichiometry    C28H50CaMn4N5O22(1-,3)
 Framework group  C1[X(C28H50CaMn4N5O22)]
 Deg. of freedom   324
 Full point group                 C1      NOp   1
 Largest Abelian subgroup         C1      NOp   1
 Largest concise Abelian subgroup C1      NOp   1
                         Standard orientation:                         
 ---------------------------------------------------------------------
 Center     Atomic      Atomic             Coordinates (Angstroms)
 Number     Number       Type             X           Y           Z
 ---------------------------------------------------------------------
      1         25           0       -1.221797   -3.037257   -0.777661
      2         25           0       -0.579940   -0.496329   -1.379462
      3         25           0       -1.346705    2.037064   -0.490301
      4         25           0        0.186442    1.019569    1.559631
      5         20           0       -3.026993   -0.308812    0.983000
      6          8           0       -1.025656   -1.536964    0.156800
      7          8           0       -1.171129   -1.965073   -2.267041
      8          8           0       -2.153345    0.582026   -1.088018
      9          8           0       -1.522292    1.558989    1.286714
     10          8           0        0.297669    0.983355   -0.332357
     11          1           0       -4.737601   -4.358758   -3.286139
     12          6           0       -5.377076   -4.547713   -2.410580
     13          1           0       -6.345478   -4.918915   -2.781608
     14          6           0       -5.567529   -3.281362   -1.577429
     15          6           0       -4.304133   -2.646434   -0.981607
     16          8           0       -4.415669   -1.532250   -0.442352
     17          8           0       -3.220285   -3.346488   -1.070126
     18          6           0        0.024802    1.033254    6.280377
     19          6           0       -1.289743    0.666061    5.592728
     20          6           0       -1.202428    0.377269    4.090316
     21          8           0       -2.184858   -0.174864    3.533303
     22          8           0       -0.114241    0.732382    3.507012
     23          1           0        6.324150   -2.199437    3.088646
     24          6           0        5.742612   -2.881434    2.452831
     25          6           0        6.049456   -2.491166    1.006662
     26          6           0        4.235945   -2.792247    2.797385
     27          6           0        3.531728   -1.534863    2.363600
     28          7           0        4.171793   -0.362025    1.980717
     29          6           0        2.185885   -1.251143    2.281180
     30          6           0        3.226104    0.557533    1.663895
     31          7           0        2.013250    0.048743    1.849219
     32          7           0        5.699213   -3.401840    0.057132
     33          6           0        5.522276   -3.034430   -1.354397
     34          1           0        6.318674   -2.320523   -1.602556
     35          6           0        4.146879   -2.403309   -1.627809
     36          6           0        2.975351   -3.331942   -1.306028
     37          6           0        1.604338   -2.645361   -1.218940
     38          8           0        1.491698   -1.430510   -1.480368
     39          8           0        0.671517   -3.457826   -0.848663
     40          6           0        5.744524    3.877868   -2.084096
     41          6           0        4.572115    2.947442   -2.054744
     42          7           0        4.444069    1.911766   -2.963228
     43          6           0        3.486090    2.951513   -1.195988
     44          6           0        3.300021    1.310003   -2.647997
     45          7           0        2.682960    1.900733   -1.588722
     46          1           0        0.847110    7.408941    0.663081
     47          6           0        0.507046    6.413731    0.335291
     48          1           0       -0.587741    6.426962    0.250561
     49          6           0        0.964096    5.336349    1.317361
     50          6           0        0.509677    3.911836    0.981488
     51          8           0       -0.354817    3.776475    0.066723
     52          8           0        1.038205    2.977219    1.674241
     53          6           0       -4.089692    2.836317    0.016524
     54          8           0       -4.352016    1.781883    0.648661
     55          8           0       -2.967461    3.144656   -0.527444
     56          6           0       -0.709065    3.742550   -4.895611
     57          6           0       -0.168492    2.335282   -4.648373
     58          6           0       -0.421369    1.776909   -3.249234
     59          8           0       -0.886269    2.577566   -2.376026
     60          8           0       -0.118287    0.552301   -3.075231
     61          8           0        6.538264   -1.385900    0.732710
     62          1           0       -4.912365   -5.350752   -1.820647
     63          1           0        5.224183   -4.240442    0.379542
     64          1           0        1.790771    1.593319   -1.143092
     65          1           0       -6.059272   -2.489957   -2.164481
     66          1           0       -6.237806   -3.474635   -0.722928
     67          1           0        5.669913    4.632224   -1.287095
     68          1           0        6.692264    3.330851   -1.951311
     69          1           0        3.209183    3.606652   -0.375842
     70          1           0        2.868365    0.445487   -3.144524
     71          1           0        3.444100    1.554104    1.294754
     72          1           0        1.336362   -1.895247    2.484414
     73          1           0        5.168156   -0.297517    1.743611
     74          1           0        5.676118   -3.943387   -1.957620
     75          6           0       -5.191552    3.878232   -0.145074
     76          1           0       -4.836709    4.756756   -0.696346
     77          1           0       -6.038784    3.420610   -0.676796
     78          1           0       -5.553515    4.181648    0.848430
     79          1           0       -1.799620    3.777784   -4.762418
     80          1           0       -0.272049    4.462712   -4.191163
     81          1           0       -0.589842    1.607838   -5.360492
     82          1           0        0.924014    2.301026   -4.799880
     83          1           0        0.751251    0.210104    6.214725
     84          1           0       -1.764168   -0.208980    6.064343
     85          1           0        0.484055    1.912013    5.808410
     86          1           0       -2.019737    1.488385    5.696773
     87          1           0        4.138887   -2.916872    3.890102
     88          1           0        6.091098   -3.905086    2.665669
     89          1           0        3.698589   -3.647542    2.356424
     90          1           0        0.906796    6.227083   -0.671389
     91          1           0        0.582408    5.543666    2.332370
     92          1           0        2.061540    5.318844    1.418053
     93          1           0        4.057820   -1.476977   -1.042354
     94          1           0        3.114092   -3.833307   -0.333341
     95          1           0        2.887433   -4.144792   -2.047013
     96          1           0        4.108693   -2.092191   -2.683041
     97          8           0       -3.011291   -2.526480    2.178556
     98          1           0       -2.553497   -2.213285    2.980393
     99          8           0       -1.409965   -4.626555   -2.373676
    100          1           0       -2.374380   -3.164588    1.713976
    101          8           0       -1.419543   -4.173166    0.761071
    102          1           0       -4.891533    1.077800    2.326642
    103          8           0       -4.822314    0.219097    2.802034
    104          1           0       -4.064071    0.301446    3.421773
    105          1           0       -1.154698   -3.900063   -2.988764
    106          1           0       -2.387653   -4.511040   -2.296564
    107          1           0       -2.028084   -4.899719    0.534870
    108          1           0       -0.143092    1.255763    7.345961
    109          1           0        5.810221    4.406202   -3.049310
    110          1           0       -0.474202    4.070817   -5.920378
 ---------------------------------------------------------------------
 Rotational constants (GHZ):      0.0429211      0.0353440      0.0306448
 Standard basis: def2TZVP (5D, 7F)
 There are  2527 symmetry adapted cartesian basis functions of A   symmetry.
 There are  2221 symmetry adapted basis functions of A   symmetry.
  2221 basis functions,  3690 primitive gaussians,  2527 cartesian basis functions
   276 alpha electrons      274 beta electrons
       nuclear repulsion energy     15932.5374668432 Hartrees.
 NAtoms=  110 NActive=  110 NUniq=  110 SFac= 1.00D+00 NAtFMM=   60 NAOKFM=T Big=T
 Integral buffers will be    131072 words long.
 Raffenetti 2 integral format.
 Two-electron integral symmetry is turned on.
 One-electron integrals computed using PRISM.
   1 Symmetry operations used in ECPInt.
 ECPInt:  NShTT=  386760 NPrTT= 1245903 LenC2=  263766 LenP2D=  525203.
 LDataN:  DoStor=T MaxTD1= 6 Len=  172
 NBasis=  2221 RedAO= T EigKep=  3.35D-05  NBF=  2221
 NBsUse=  2221 1.00D-06 EigRej= -1.00D+00 NBFU=  2221
 ExpMin= 2.68D-02 ExpMax= 2.77D+05 ExpMxC= 5.89D+03 IAcc=3 IRadAn=         5 AccDes= 0.00D+00
 Harris functional with IExCor=  404 and IRadAn=       5 diagonalized for initial guess.
 HarFok:  IExCor=  404 AccDes= 0.00D+00 IRadAn=         5 IDoV= 1 UseB2=F ITyADJ=14
 ICtDFT=  3500011 ScaDFX=  1.000000  1.000000  1.000000  1.000000
 FoFCou: FMM=F IPFlag=           0 FMFlag=      100000 FMFlg1=        2001
         NFxFlg=           0 DoJE=T BraDBF=F KetDBF=T FulRan=T
         wScrn=  0.000000 ICntrl=     500 IOpCl=  0 I1Cent=   200000004 NGrid=           0
         NMat0=    1 NMatS0=      1 NMatT0=    0 NMatD0=    1 NMtDS0=    0 NMtDT0=    0
 Petite list used in FoFCou.
 Initial guess <Sx>= 0.0000 <Sy>= 0.0000 <Sz>= 1.0000 <S**2>= 2.0000 S= 1.0000
 Requested convergence on RMS density matrix=1.00D-08 within 128 cycles.
 Requested convergence on MAX density matrix=1.00D-06.
 Requested convergence on             energy=1.00D-06.
 No special actions if energy rises.
 EnCoef did    14 forward-backward iterations
 EnCoef did   100 forward-backward iterations
 EnCoef did   100 forward-backward iterations
 EnCoef did   100 forward-backward iterations
 EnCoef did   100 forward-backward iterations
 EnCoef did   100 forward-backward iterations
 EnCoef did    20 forward-backward iterations
 EnCoef did   100 forward-backward iterations
 EnCoef did    21 forward-backward iterations
 EnCoef did   100 forward-backward iterations
 EnCoef did   100 forward-backward iterations
 EnCoef did   100 forward-backward iterations
 EnCoef did   100 forward-backward iterations
 EnCoef did   100 forward-backward iterations
 EnCoef did   100 forward-backward iterations
 EnCoef did   100 forward-backward iterations
 EnCoef did    28 forward-backward iterations
 EnCoef did   100 forward-backward iterations
 Restarting incremental Fock formation.
 EnCoef did   100 forward-backward iterations
 EnCoef did    79 forward-backward iterations
 EnCoef did     5 forward-backward iterations
 EnCoef did   100 forward-backward iterations
 EnCoef did   100 forward-backward iterations
 EnCoef did    46 forward-backward iterations
 EnCoef did    11 forward-backward iterations
 EnCoef did   100 forward-backward iterations
 EnCoef did     8 forward-backward iterations
 EnCoef did   100 forward-backward iterations
 EnCoef did     2 forward-backward iterations
 EnCoef did     3 forward-backward iterations
 EnCoef did     2 forward-backward iterations
 Restarting incremental Fock formation.
 Restarting incremental Fock formation.
 SCF Done:  E(UB-P86) =  -8310.52875627     A.U. after   62 cycles
            NFock= 62  Conv=0.27D-08     -V/T= 2.0028
 <Sx>= 0.0000 <Sy>= 0.0000 <Sz>= 1.0000 <S**2>= 7.1110 S= 2.2131
 <L.S>= 0.000000000000E+00
 Annihilation of the first spin contaminant:
 S**2 before annihilation     7.1110,   after    19.5788
 Range of M.O.s used for correlation:     1  2221
 NBasis=  2221 NAE=   276 NBE=   274 NFC=     0 NFV=     0
 NROrb=   2221 NOA=   276 NOB=   274 NVA=  1945 NVB=  1947

 **** Warning!!: The largest alpha MO coefficient is  0.26341745D+02


 **** Warning!!: The smallest alpha delta epsilon is  0.75223401D-02


 **** Warning!!: The largest beta MO coefficient is  0.26969006D+02


 **** Warning!!: The smallest beta delta epsilon is  0.22237762D-01

          Differentiating once with respect to electric field.
                with respect to dipole field.
          Electric field/nuclear overlap derivatives assumed to be zero.
          There are     3 degrees of freedom in the 1st order CPHF.  IDoFFX=0 NUNeed=     3.
      3 vectors produced by pass  0 Test12= 3.57D-11 3.33D-08 XBig12= 3.52D+04 1.52D+02.
 AX will form     3 AO Fock derivatives at one time.
      3 vectors produced by pass  1 Test12= 3.57D-11 3.33D-08 XBig12= 1.64D+05 1.15D+02.
      3 vectors produced by pass  2 Test12= 3.57D-11 3.33D-08 XBig12= 3.94D+05 1.18D+02.
      3 vectors produced by pass  3 Test12= 3.57D-11 3.33D-08 XBig12= 1.69D+06 2.76D+02.
      3 vectors produced by pass  4 Test12= 3.57D-11 3.33D-08 XBig12= 4.46D+06 3.86D+02.
      3 vectors produced by pass  5 Test12= 3.57D-11 3.33D-08 XBig12= 1.07D+07 5.46D+02.
      3 vectors produced by pass  6 Test12= 3.57D-11 3.33D-08 XBig12= 2.02D+07 8.47D+02.
      3 vectors produced by pass  7 Test12= 3.57D-11 3.33D-08 XBig12= 3.03D+07 1.03D+03.
      3 vectors produced by pass  8 Test12= 3.57D-11 3.33D-08 XBig12= 3.28D+07 8.37D+02.
      3 vectors produced by pass  9 Test12= 3.57D-11 3.33D-08 XBig12= 4.49D+07 8.89D+02.
      3 vectors produced by pass 10 Test12= 3.57D-11 3.33D-08 XBig12= 4.43D+07 1.22D+03.
      3 vectors produced by pass 11 Test12= 3.57D-11 3.33D-08 XBig12= 3.69D+07 7.90D+02.
      3 vectors produced by pass 12 Test12= 3.57D-11 3.33D-08 XBig12= 4.37D+07 1.29D+03.
      3 vectors produced by pass 13 Test12= 3.57D-11 3.33D-08 XBig12= 5.49D+07 1.19D+03.
      3 vectors produced by pass 14 Test12= 3.57D-11 3.33D-08 XBig12= 3.48D+07 6.29D+02.
      3 vectors produced by pass 15 Test12= 3.57D-11 3.33D-08 XBig12= 2.80D+07 5.61D+02.
      3 vectors produced by pass 16 Test12= 3.57D-11 3.33D-08 XBig12= 1.78D+07 4.47D+02.
      3 vectors produced by pass 17 Test12= 3.57D-11 3.33D-08 XBig12= 1.68D+07 5.06D+02.
      3 vectors produced by pass 18 Test12= 3.57D-11 3.33D-08 XBig12= 1.19D+07 4.53D+02.
      3 vectors produced by pass 19 Test12= 3.57D-11 3.33D-08 XBig12= 6.37D+06 2.94D+02.
      3 vectors produced by pass 20 Test12= 3.57D-11 3.33D-08 XBig12= 3.97D+06 2.64D+02.
      3 vectors produced by pass 21 Test12= 3.57D-11 3.33D-08 XBig12= 2.01D+06 1.95D+02.
      3 vectors produced by pass 22 Test12= 3.57D-11 3.33D-08 XBig12= 9.58D+05 1.20D+02.
      3 vectors produced by pass 23 Test12= 3.57D-11 3.33D-08 XBig12= 5.18D+05 9.04D+01.
      3 vectors produced by pass 24 Test12= 3.57D-11 3.33D-08 XBig12= 2.81D+05 5.35D+01.
      3 vectors produced by pass 25 Test12= 3.57D-11 3.33D-08 XBig12= 9.67D+04 3.20D+01.
      3 vectors produced by pass 26 Test12= 3.57D-11 3.33D-08 XBig12= 3.58D+04 1.62D+01.
      3 vectors produced by pass 27 Test12= 3.57D-11 3.33D-08 XBig12= 1.82D+04 1.17D+01.
      3 vectors produced by pass 28 Test12= 3.57D-11 3.33D-08 XBig12= 1.17D+04 1.19D+01.
      3 vectors produced by pass 29 Test12= 3.57D-11 3.33D-08 XBig12= 5.74D+03 9.19D+00.
      3 vectors produced by pass 30 Test12= 3.57D-11 3.33D-08 XBig12= 1.68D+03 3.25D+00.
      3 vectors produced by pass 31 Test12= 3.57D-11 3.33D-08 XBig12= 9.66D+02 2.52D+00.
      3 vectors produced by pass 32 Test12= 3.57D-11 3.33D-08 XBig12= 3.97D+02 2.17D+00.
      3 vectors produced by pass 33 Test12= 3.57D-11 3.33D-08 XBig12= 9.16D+01 8.39D-01.
      3 vectors produced by pass 34 Test12= 3.57D-11 3.33D-08 XBig12= 3.08D+01 5.61D-01.
      3 vectors produced by pass 35 Test12= 3.57D-11 3.33D-08 XBig12= 7.65D+00 2.81D-01.
      3 vectors produced by pass 36 Test12= 3.57D-11 3.33D-08 XBig12= 1.30D+00 9.61D-02.
      3 vectors produced by pass 37 Test12= 3.57D-11 3.33D-08 XBig12= 3.32D-01 6.52D-02.
      3 vectors produced by pass 38 Test12= 3.57D-11 3.33D-08 XBig12= 8.42D-02 2.19D-02.
      3 vectors produced by pass 39 Test12= 3.57D-11 3.33D-08 XBig12= 2.11D-02 1.06D-02.
      3 vectors produced by pass 40 Test12= 3.57D-11 3.33D-08 XBig12= 5.40D-03 7.09D-03.
      3 vectors produced by pass 41 Test12= 3.57D-11 3.33D-08 XBig12= 1.02D-03 4.80D-03.
      3 vectors produced by pass 42 Test12= 3.57D-11 3.33D-08 XBig12= 2.11D-04 2.34D-03.
      3 vectors produced by pass 43 Test12= 3.57D-11 3.33D-08 XBig12= 6.14D-05 1.33D-03.
      3 vectors produced by pass 44 Test12= 3.57D-11 3.33D-08 XBig12= 2.15D-05 6.93D-04.
      3 vectors produced by pass 45 Test12= 3.57D-11 3.33D-08 XBig12= 4.68D-06 2.31D-04.
      3 vectors produced by pass 46 Test12= 3.57D-11 3.33D-08 XBig12= 6.76D-07 5.90D-05.
      3 vectors produced by pass 47 Test12= 3.57D-11 3.33D-08 XBig12= 1.74D-07 3.72D-05.
      3 vectors produced by pass 48 Test12= 3.57D-11 3.33D-08 XBig12= 3.65D-08 1.28D-05.
      3 vectors produced by pass 49 Test12= 3.57D-11 3.33D-08 XBig12= 7.81D-09 7.90D-06.
      3 vectors produced by pass 50 Test12= 3.57D-11 3.33D-08 XBig12= 1.54D-09 3.43D-06.
      3 vectors produced by pass 51 Test12= 3.57D-11 3.33D-08 XBig12= 1.92D-10 9.56D-07.
      2 vectors produced by pass 52 Test12= 3.57D-11 3.33D-08 XBig12= 2.93D-11 4.20D-07.
      1 vectors produced by pass 53 Test12= 3.57D-11 3.33D-08 XBig12= 5.65D-12 2.43D-07.
      1 vectors produced by pass 54 Test12= 3.57D-11 3.33D-08 XBig12= 1.08D-12 6.88D-08.
      1 vectors produced by pass 55 Test12= 3.57D-11 3.33D-08 XBig12= 1.62D-13 5.20D-08.
 InvSVY:  IOpt=1 It=  1 EMax= 1.42D-13
 Solved reduced A of dimension   161 with     3 vectors.
 End of Minotr F.D. properties file   721 does not exist.
 End of Minotr F.D. properties file   722 does not exist.
 End of Minotr F.D. properties file   788 does not exist.
 PrsmSu:  requested number of processors reduced to:   6 ShMem   1 Linda.
   1 Symmetry operations used in ECPInt.
 ECPInt:  NShTT=  386760 NPrTT= 1245903 LenC2=  263766 LenP2D=  525203.
 LDataN:  DoStor=T MaxTD1= 7 Len=  274
 Number of processors reduced to   2 by ecpmxn.
 Symmetrizing basis deriv contribution to polar:
 IMax=3 JMax=2 DiffMx= 0.00D+00
 G2DrvN: will do    37 centers at a time, making    3 passes.
 PxScal for G2LodP:  IOpCl= 1 ISclPx=1 IMOff=     1 NMtTot=     4 NTT= 2467531 ScalPx= 5.72D+00
 Calling FoFCou, ICntrl=  3507 FMM=T I1Cent=   0 AccDes= 0.00D+00.
 PxScal for G2LodP:  IOpCl= 1 ISclPx=1 IMOff=     1 NMtTot=     4 NTT= 2467531 ScalPx= 5.72D+00
 Calling FoFCou, ICntrl=  3507 FMM=T I1Cent=   0 AccDes= 0.00D+00.
 PxScal for G2LodP:  IOpCl= 1 ISclPx=1 IMOff=     1 NMtTot=     4 NTT= 2467531 ScalPx= 5.72D+00
 Calling FoFCou, ICntrl=  3507 FMM=T I1Cent=   0 AccDes= 0.00D+00.
 End of G2Drv F.D. properties file   721 does not exist.
 End of G2Drv F.D. properties file   722 does not exist.
 End of G2Drv F.D. properties file   788 does not exist.
          IDoAtm=11111111111111111111111111111111111111111111111111
          IDoAtm=11111111111111111111111111111111111111111111111111
          IDoAtm=1111111111
          Differentiating once with respect to electric field.
                with respect to dipole field.
          Differentiating once with respect to nuclear coordinates.
 CalDSu exits because no D1Ps are significant.
          There are   333 degrees of freedom in the 1st order CPHF.  IDoFFX=5 NUNeed=   333.
 Will reuse    3 saved solutions.
    330 vectors produced by pass  0 Test12= 1.07D-12 1.00D-09 XBig12= 7.40D+00 1.43D+00.
 AX will form    72 AO Fock derivatives at one time.
    330 vectors produced by pass  1 Test12= 1.07D-12 1.00D-09 XBig12= 5.29D+00 2.67D-01.
    330 vectors produced by pass  2 Test12= 1.07D-12 1.00D-09 XBig12= 1.40D-01 5.48D-02.
    327 vectors produced by pass  3 Test12= 1.07D-12 1.00D-09 XBig12= 1.12D-03 2.50D-03.
    327 vectors produced by pass  4 Test12= 1.07D-12 1.00D-09 XBig12= 6.06D-06 1.12D-04.
    312 vectors produced by pass  5 Test12= 1.07D-12 1.00D-09 XBig12= 2.41D-08 5.46D-06.
    184 vectors produced by pass  6 Test12= 1.07D-12 1.00D-09 XBig12= 5.92D-11 2.85D-07.
     57 vectors produced by pass  7 Test12= 1.07D-12 1.00D-09 XBig12= 2.70D-13 1.88D-08.
     27 vectors produced by pass  8 Test12= 1.07D-12 1.00D-09 XBig12= 4.87D-14 4.13D-09.
     22 vectors produced by pass  9 Test12= 1.07D-12 1.00D-09 XBig12= 2.81D-14 2.89D-09.
     20 vectors produced by pass 10 Test12= 1.07D-12 1.00D-09 XBig12= 2.22D-14 2.90D-09.
     20 vectors produced by pass 11 Test12= 1.07D-12 1.00D-09 XBig12= 1.69D-14 2.58D-09.
     17 vectors produced by pass 12 Test12= 1.07D-12 1.00D-09 XBig12= 1.43D-14 2.10D-09.
     12 vectors produced by pass 13 Test12= 1.07D-12 1.00D-09 XBig12= 9.16D-15 1.69D-09.
     12 vectors produced by pass 14 Test12= 1.07D-12 1.00D-09 XBig12= 1.53D-14 2.21D-09.
      9 vectors produced by pass 15 Test12= 1.07D-12 1.00D-09 XBig12= 1.25D-14 1.94D-09.
      9 vectors produced by pass 16 Test12= 1.07D-12 1.00D-09 XBig12= 2.85D-14 3.21D-09.
      9 vectors produced by pass 17 Test12= 1.07D-12 1.00D-09 XBig12= 2.43D-14 3.02D-09.
      9 vectors produced by pass 18 Test12= 1.07D-12 1.00D-09 XBig12= 1.72D-14 2.89D-09.
      9 vectors produced by pass 19 Test12= 1.07D-12 1.00D-09 XBig12= 1.16D-14 1.83D-09.
      5 vectors produced by pass 20 Test12= 1.07D-12 1.00D-09 XBig12= 5.88D-15 1.29D-09.
      4 vectors produced by pass 21 Test12= 1.07D-12 1.00D-09 XBig12= 9.07D-15 2.48D-09.
      4 vectors produced by pass 22 Test12= 1.07D-12 1.00D-09 XBig12= 2.08D-14 2.61D-09.
      4 vectors produced by pass 23 Test12= 1.07D-12 1.00D-09 XBig12= 9.61D-15 2.04D-09.
      4 vectors produced by pass 24 Test12= 1.07D-12 1.00D-09 XBig12= 1.25D-14 2.35D-09.
      4 vectors produced by pass 25 Test12= 1.07D-12 1.00D-09 XBig12= 2.41D-14 2.94D-09.
      4 vectors produced by pass 26 Test12= 1.07D-12 1.00D-09 XBig12= 2.01D-14 3.59D-09.
      4 vectors produced by pass 27 Test12= 1.07D-12 1.00D-09 XBig12= 1.31D-14 2.01D-09.
      4 vectors produced by pass 28 Test12= 1.07D-12 1.00D-09 XBig12= 1.19D-14 2.25D-09.
      4 vectors produced by pass 29 Test12= 1.07D-12 1.00D-09 XBig12= 1.39D-14 2.29D-09.
      3 vectors produced by pass 30 Test12= 1.07D-12 1.00D-09 XBig12= 6.41D-15 1.82D-09.
 InvSVY:  IOpt=1 It=  1 EMax= 7.49D-15
 Solved reduced A of dimension  2416 with   333 vectors.
 Isotropic polarizability for W=    0.000000      696.27 Bohr**3.
 End of Minotr F.D. properties file   721 does not exist.
 End of Minotr F.D. properties file   722 does not exist.
 End of Minotr F.D. properties file   788 does not exist.
 Hyperfine terms turned off by default for NAtoms > 100.

 **********************************************************************

            Population analysis using the SCF density.

 **********************************************************************

 Orbital symmetries:
 Alpha Orbitals:
       Occupied  (A) (A) (A) (A) (A) (A) (A) (A) (A) (A) (A) (A)
                 (A) (A) (A) (A) (A) (A) (A) (A) (A) (A) (A) (A)
                 (A) (A) (A) (A) (A) (A) (A) (A) (A) (A) (A) (A)
                 (A) (A) (A) (A) (A) (A) (A) (A) (A) (A) (A) (A)
                 (A) (A) (A) (A) (A) (A) (A) (A) (A) (A) (A) (A)
                 (A) (A) (A) (A) (A) (A) (A) (A) (A) (A) (A) (A)
                 (A) (A) (A) (A) (A) (A) (A) (A) (A) (A) (A) (A)
                 (A) (A) (A) (A) (A) (A) (A) (A) (A) (A) (A) (A)
                 (A) (A) (A) (A) (A) (A) (A) (A) (A) (A) (A) (A)
                 (A) (A) (A) (A) (A) (A) (A) (A) (A) (A) (A) (A)
                 (A) (A) (A) (A) (A) (A) (A) (A) (A) (A) (A) (A)
                 (A) (A) (A) (A) (A) (A) (A) (A) (A) (A) (A) (A)
                 (A) (A) (A) (A) (A) (A) (A) (A) (A) (A) (A) (A)
                 (A) (A) (A) (A) (A) (A) (A) (A) (A) (A) (A) (A)
                 (A) (A) (A) (A) (A) (A) (A) (A) (A) (A) (A) (A)
                 (A) (A) (A) (A) (A) (A) (A) (A) (A) (A) (A) (A)
                 (A) (A) (A) (A) (A) (A) (A) (A) (A) (A) (A) (A)
                 (A) (A) (A) (A) (A) (A) (A) (A) (A) (A) (A) (A)
                 (A) (A) (A) (A) (A) (A) (A) (A) (A) (A) (A) (A)
                 (A) (A) (A) (A) (A) (A) (A) (A) (A) (A) (A) (A)
                 (A) (A) (A) (A) (A) (A) (A) (A) (A) (A) (A) (A)
                 (A) (A) (A) (A) (A) (A) (A) (A) (A) (A) (A) (A)
                 (A) (A) (A) (A) (A) (A) (A) (A) (A) (A) (A) (A)
       Virtual   (A) (A) (A) (A) (A) (A) (A) (A) (A) (A) (A) (A)
                 (A) (A) (A) (A) (A) (A) (A) (A) (A) (A) (A) (A)
                 (A) (A) (A) (A) (A) (A) (A) (A) (A) (A) (A) (A)
                 (A) (A) (A) (A) (A) (A) (A) (A) (A) (A) (A) (A)
                 (A) (A) (A) (A) (A) (A) (A) (A) (A) (A) (A) (A)
                 (A) (A) (A) (A) (A) (A) (A) (A) (A) (A) (A) (A)
                 (A) (A) (A) (A) (A) (A) (A) (A) (A) (A) (A) (A)
                 (A) (A) (A) (A) (A) (A) (A) (A) (A) (A) (A) (A)
                 (A) (A) (A) (A) (A) (A) (A) (A) (A) (A) (A) (A)
                 (A) (A) (A) (A) (A) (A) (A) (A) (A) (A) (A) (A)
                 (A) (A) (A) (A) (A) (A) (A) (A) (A) (A) (A) (A)
                 (A) (A) (A) (A) (A) (A) (A) (A) (A) (A) (A) (A)
                 (A) (A) (A) (A) (A) (A) (A) (A) (A) (A) (A) (A)
                 (A) (A) (A) (A) (A) (A) (A) (A) (A) (A) (A) (A)
                 (A) (A) (A) (A) (A) (A) (A) (A) (A) (A) (A) (A)
                 (A) (A) (A) (A) (A) (A) (A) (A) (A) (A) (A) (A)
                 (A) (A) (A) (A) (A) (A) (A) (A) (A) (A) (A) (A)
                 (A) (A) (A) (A) (A) (A) (A) (A) (A) (A) (A) (A)
                 (A) (A) (A) (A) (A) (A) (A) (A) (A) (A) (A) (A)
                 (A) (A) (A) (A) (A) (A) (A) (A) (A) (A) (A) (A)
                 (A) (A) (A) (A) (A) (A) (A) (A) (A) (A) (A) (A)
                 (A) (A) (A) (A) (A) (A) (A) (A) (A) (A) (A) (A)
                 (A) (A) (A) (A) (A) (A) (A) (A) (A) (A) (A) (A)
                 (A) (A) (A) (A) (A) (A) (A) (A) (A) (A) (A) (A)
                 (A) (A) (A) (A) (A) (A) (A) (A) (A) (A) (A) (A)
                 (A) (A) (A) (A) (A) (A) (A) (A) (A) (A) (A) (A)
                 (A) (A) (A) (A) (A) (A) (A) (A) (A) (A) (A) (A)
                 (A) (A) (A) (A) (A) (A) (A) (A) (A) (A) (A) (A)
                 (A) (A) (A) (A) (A) (A) (A) (A) (A) (A) (A) (A)
                 (A) (A) (A) (A) (A) (A) (A) (A) (A) (A) (A) (A)
                 (A) (A) (A) (A) (A) (A) (A) (A) (A) (A) (A) (A)
                 (A) (A) (A) (A) (A) (A) (A) (A) (A) (A) (A) (A)
                 (A) (A) (A) (A) (A) (A) (A) (A) (A) (A) (A) (A)
                 (A) (A) (A) (A) (A) (A) (A) (A) (A) (A) (A) (A)
                 (A) (A) (A) (A) (A) (A) (A) (A) (A) (A) (A) (A)
                 (A) (A) (A) (A) (A) (A) (A) (A) (A) (A) (A) (A)
                 (A) (A) (A) (A) (A) (A) (A) (A) (A) (A) (A) (A)
                 (A) (A) (A) (A) (A) (A) (A) (A) (A) (A) (A) (A)
                 (A) (A) (A) (A) (A) (A) (A) (A) (A) (A) (A) (A)
                 (A) (A) (A) (A) (A) (A) (A) (A) (A) (A) (A) (A)
                 (A) (A) (A) (A) (A) (A) (A) (A) (A) (A) (A) (A)
                 (A) (A) (A) (A) (A) (A) (A) (A) (A) (A) (A) (A)
                 (A) (A) (A) (A) (A) (A) (A) (A) (A) (A) (A) (A)
                 (A) (A) (A) (A) (A) (A) (A) (A) (A) (A) (A) (A)
                 (A) (A) (A) (A) (A) (A) (A) (A) (A) (A) (A) (A)
                 (A) (A) (A) (A) (A) (A) (A) (A) (A) (A) (A) (A)
                 (A) (A) (A) (A) (A) (A) (A) (A) (A) (A) (A) (A)
                 (A) (A) (A) (A) (A) (A) (A) (A) (A) (A) (A) (A)
                 (A) (A) (A) (A) (A) (A) (A) (A) (A) (A) (A) (A)
                 (A) (A) (A) (A) (A) (A) (A) (A) (A) (A) (A) (A)
                 (A) (A) (A) (A) (A) (A) (A) (A) (A) (A) (A) (A)
                 (A) (A) (A) (A) (A) (A) (A) (A) (A) (A) (A) (A)
                 (A) (A) (A) (A) (A) (A) (A) (A) (A) (A) (A) (A)
                 (A) (A) (A) (A) (A) (A) (A) (A) (A) (A) (A) (A)
                 (A) (A) (A) (A) (A) (A) (A) (A) (A) (A) (A) (A)
                 (A) (A) (A) (A) (A) (A) (A) (A) (A) (A) (A) (A)
                 (A) (A) (A) (A) (A) (A) (A) (A) (A) (A) (A) (A)
                 (A) (A) (A) (A) (A) (A) (A) (A) (A) (A) (A) (A)
                 (A) (A) (A) (A) (A) (A) (A) (A) (A) (A) (A) (A)
                 (A) (A) (A) (A) (A) (A) (A) (A) (A) (A) (A) (A)
                 (A) (A) (A) (A) (A) (A) (A) (A) (A) (A) (A) (A)
                 (A) (A) (A) (A) (A) (A) (A) (A) (A) (A) (A) (A)
                 (A) (A) (A) (A) (A) (A) (A) (A) (A) (A) (A) (A)
                 (A) (A) (A) (A) (A) (A) (A) (A) (A) (A) (A) (A)
                 (A) (A) (A) (A) (A) (A) (A) (A) (A) (A) (A) (A)
                 (A) (A) (A) (A) (A) (A) (A) (A) (A) (A) (A) (A)
                 (A) (A) (A) (A) (A) (A) (A) (A) (A) (A) (A) (A)
                 (A) (A) (A) (A) (A) (A) (A) (A) (A) (A) (A) (A)
                 (A) (A) (A) (A) (A) (A) (A) (A) (A) (A) (A) (A)
                 (A) (A) (A) (A) (A) (A) (A) (A) (A) (A) (A) (A)
                 (A) (A) (A) (A) (A) (A) (A) (A) (A) (A) (A) (A)
                 (A) (A) (A) (A) (A) (A) (A) (A) (A) (A) (A) (A)
                 (A) (A) (A) (A) (A) (A) (A) (A) (A) (A) (A) (A)
                 (A) (A) (A) (A) (A) (A) (A) (A) (A) (A) (A) (A)
                 (A) (A) (A) (A) (A) (A) (A) (A) (A) (A) (A) (A)
                 (A) (A) (A) (A) (A) (A) (A) (A) (A) (A) (A) (A)
                 (A) (A) (A) (A) (A) (A) (A) (A) (A) (A) (A) (A)
                 (A) (A) (A) (A) (A) (A) (A) (A) (A) (A) (A) (A)
                 (A) (A) (A) (A) (A) (A) (A) (A) (A) (A) (A) (A)
                 (A) (A) (A) (A) (A) (A) (A) (A) (A) (A) (A) (A)
                 (A) (A) (A) (A) (A) (A) (A) (A) (A) (A) (A) (A)
                 (A) (A) (A) (A) (A) (A) (A) (A) (A) (A) (A) (A)
                 (A) (A) (A) (A) (A) (A) (A) (A) (A) (A) (A) (A)
                 (A) (A) (A) (A) (A) (A) (A) (A) (A) (A) (A) (A)
                 (A) (A) (A) (A) (A) (A) (A) (A) (A) (A) (A) (A)
                 (A) (A) (A) (A) (A) (A) (A) (A) (A) (A) (A) (A)
                 (A) (A) (A) (A) (A) (A) (A) (A) (A) (A) (A) (A)
                 (A) (A) (A) (A) (A) (A) (A) (A) (A) (A) (A) (A)
                 (A) (A) (A) (A) (A) (A) (A) (A) (A) (A) (A) (A)
                 (A) (A) (A) (A) (A) (A) (A) (A) (A) (A) (A) (A)
                 (A) (A) (A) (A) (A) (A) (A) (A) (A) (A) (A) (A)
                 (A) (A) (A) (A) (A) (A) (A) (A) (A) (A) (A) (A)
                 (A) (A) (A) (A) (A) (A) (A) (A) (A) (A) (A) (A)
                 (A) (A) (A) (A) (A) (A) (A) (A) (A) (A) (A) (A)
                 (A) (A) (A) (A) (A) (A) (A) (A) (A) (A) (A) (A)
                 (A) (A) (A) (A) (A) (A) (A) (A) (A) (A) (A) (A)
                 (A) (A) (A) (A) (A) (A) (A) (A) (A) (A) (A) (A)
                 (A) (A) (A) (A) (A) (A) (A) (A) (A) (A) (A) (A)
                 (A) (A) (A) (A) (A) (A) (A) (A) (A) (A) (A) (A)
                 (A) (A) (A) (A) (A) (A) (A) (A) (A) (A) (A) (A)
                 (A) (A) (A) (A) (A) (A) (A) (A) (A) (A) (A) (A)
                 (A) (A) (A) (A) (A) (A) (A) (A) (A) (A) (A) (A)
                 (A) (A) (A) (A) (A) (A) (A) (A) (A) (A) (A) (A)
                 (A) (A) (A) (A) (A) (A) (A) (A) (A) (A) (A) (A)
                 (A) (A) (A) (A) (A) (A) (A) (A) (A) (A) (A) (A)
                 (A) (A) (A) (A) (A) (A) (A) (A) (A) (A) (A) (A)
                 (A) (A) (A) (A) (A) (A) (A) (A) (A) (A) (A) (A)
                 (A) (A) (A) (A) (A) (A) (A) (A) (A) (A) (A) (A)
                 (A) (A) (A) (A) (A) (A) (A) (A) (A) (A) (A) (A)
                 (A) (A) (A) (A) (A) (A) (A) (A) (A) (A) (A) (A)
                 (A) (A) (A) (A) (A) (A) (A) (A) (A) (A) (A) (A)
                 (A) (A) (A) (A) (A) (A) (A) (A) (A) (A) (A) (A)
                 (A) (A) (A) (A) (A) (A) (A) (A) (A) (A) (A) (A)
                 (A) (A) (A) (A) (A) (A) (A) (A) (A) (A) (A) (A)
                 (A) (A) (A) (A) (A) (A) (A) (A) (A) (A) (A) (A)
                 (A) (A) (A) (A) (A) (A) (A) (A) (A) (A) (A) (A)
                 (A) (A) (A) (A) (A) (A) (A) (A) (A) (A) (A) (A)
                 (A) (A) (A) (A) (A) (A) (A) (A) (A) (A) (A) (A)
                 (A) (A) (A) (A) (A) (A) (A) (A) (A) (A) (A) (A)
                 (A) (A) (A) (A) (A) (A) (A) (A) (A) (A) (A) (A)
                 (A) (A) (A) (A) (A) (A) (A) (A) (A) (A) (A) (A)
                 (A) (A) (A) (A) (A) (A) (A) (A) (A) (A) (A) (A)
                 (A) (A) (A) (A) (A) (A) (A) (A) (A) (A) (A) (A)
                 (A) (A) (A) (A) (A) (A) (A) (A) (A) (A) (A) (A)
                 (A) (A) (A) (A) (A) (A) (A) (A) (A) (A) (A) (A)
                 (A) (A) (A) (A) (A) (A) (A) (A) (A) (A) (A) (A)
                 (A) (A) (A) (A) (A) (A) (A) (A) (A) (A) (A) (A)
                 (A) (A) (A) (A) (A) (A) (A) (A) (A) (A) (A) (A)
                 (A) (A) (A) (A) (A) (A) (A) (A) (A) (A) (A) (A)
                 (A) (A) (A) (A) (A) (A) (A) (A) (A) (A) (A) (A)
                 (A) (A) (A) (A) (A) (A) (A) (A) (A) (A) (A) (A)
                 (A) (A) (A) (A) (A) (A) (A) (A) (A) (A) (A) (A)
                 (A) (A) (A) (A) (A) (A) (A) (A) (A) (A) (A) (A)
                 (A) (A) (A) (A) (A) (A) (A) (A) (A) (A) (A) (A)
                 (A) (A) (A) (A) (A) (A) (A) (A) (A) (A) (A) (A)
                 (A) (A) (A) (A) (A) (A) (A) (A) (A) (A) (A) (A)
                 (A) (A) (A) (A) (A) (A) (A) (A) (A) (A) (A) (A)
                 (A) (A) (A) (A) (A) (A) (A) (A) (A) (A) (A) (A)
                 (A) (A) (A) (A) (A) (A) (A) (A) (A) (A) (A) (A)
                 (A) (A) (A) (A) (A) (A) (A) (A) (A) (A) (A) (A)
                 (A) (A) (A) (A) (A) (A) (A) (A) (A) (A) (A) (A)
                 (A) (A) (A) (A) (A) (A) (A) (A) (A) (A) (A) (A)
                 (A) (A) (A) (A) (A) (A) (A) (A) (A) (A) (A) (A)
                 (A) (A) (A) (A) (A) (A) (A) (A) (A) (A) (A) (A)
                 (A) (A) (A) (A) (A) (A) (A) (A) (A) (A) (A) (A)
                 (A) (A) (A) (A) (A) (A) (A) (A) (A) (A) (A) (A)
                 (A) (A) (A) (A) (A) (A) (A) (A) (A) (A) (A) (A)
                 (A) (A) (A) (A) (A) (A) (A) (A) (A) (A) (A) (A)
                 (A) (A) (A) (A) (A) (A) (A) (A) (A) (A) (A) (A)
                 (A) (A) (A) (A) (A) (A) (A) (A) (A) (A) (A) (A)
                 (A) (A) (A) (A) (A) (A) (A) (A) (A) (A) (A) (A)
                 (A) (A) (A) (A) (A) (A) (A) (A) (A) (A) (A) (A)
                 (A) (A) (A) (A) (A) (A) (A) (A) (A) (A) (A) (A)
                 (A) (A) (A) (A) (A) (A) (A) (A) (A) (A) (A) (A)
                 (A) (A) (A) (A) (A) (A) (A) (A) (A) (A) (A) (A)
                 (A) (A) (A) (A) (A) (A) (A) (A) (A) (A) (A) (A)
                 (A) (A) (A) (A) (A) (A) (A) (A) (A) (A) (A) (A)
                 (A) (A) (A) (A) (A) (A) (A) (A) (A) (A) (A) (A)
                 (A) (A) (A) (A) (A) (A) (A) (A) (A) (A) (A) (A)
                 (A) (A) (A) (A) (A) (A) (A) (A) (A) (A) (A) (A)
                 (A) (A) (A) (A) (A) (A) (A) (A) (A) (A) (A) (A)
                 (A) (A) (A) (A) (A) (A) (A) (A) (A) (A) (A) (A)
                 (A)
 Beta  Orbitals:
       Occupied  (A) (A) (A) (A) (A) (A) (A) (A) (A) (A) (A) (A)
                 (A) (A) (A) (A) (A) (A) (A) (A) (A) (A) (A) (A)
                 (A) (A) (A) (A) (A) (A) (A) (A) (A) (A) (A) (A)
                 (A) (A) (A) (A) (A) (A) (A) (A) (A) (A) (A) (A)
                 (A) (A) (A) (A) (A) (A) (A) (A) (A) (A) (A) (A)
                 (A) (A) (A) (A) (A) (A) (A) (A) (A) (A) (A) (A)
                 (A) (A) (A) (A) (A) (A) (A) (A) (A) (A) (A) (A)
                 (A) (A) (A) (A) (A) (A) (A) (A) (A) (A) (A) (A)
                 (A) (A) (A) (A) (A) (A) (A) (A) (A) (A) (A) (A)
                 (A) (A) (A) (A) (A) (A) (A) (A) (A) (A) (A) (A)
                 (A) (A) (A) (A) (A) (A) (A) (A) (A) (A) (A) (A)
                 (A) (A) (A) (A) (A) (A) (A) (A) (A) (A) (A) (A)
                 (A) (A) (A) (A) (A) (A) (A) (A) (A) (A) (A) (A)
                 (A) (A) (A) (A) (A) (A) (A) (A) (A) (A) (A) (A)
                 (A) (A) (A) (A) (A) (A) (A) (A) (A) (A) (A) (A)
                 (A) (A) (A) (A) (A) (A) (A) (A) (A) (A) (A) (A)
                 (A) (A) (A) (A) (A) (A) (A) (A) (A) (A) (A) (A)
                 (A) (A) (A) (A) (A) (A) (A) (A) (A) (A) (A) (A)
                 (A) (A) (A) (A) (A) (A) (A) (A) (A) (A) (A) (A)
                 (A) (A) (A) (A) (A) (A) (A) (A) (A) (A) (A) (A)
                 (A) (A) (A) (A) (A) (A) (A) (A) (A) (A) (A) (A)
                 (A) (A) (A) (A) (A) (A) (A) (A) (A) (A) (A) (A)
                 (A) (A) (A) (A) (A) (A) (A) (A) (A) (A)
       Virtual   (A) (A) (A) (A) (A) (A) (A) (A) (A) (A) (A) (A)
                 (A) (A) (A) (A) (A) (A) (A) (A) (A) (A) (A) (A)
                 (A) (A) (A) (A) (A) (A) (A) (A) (A) (A) (A) (A)
                 (A) (A) (A) (A) (A) (A) (A) (A) (A) (A) (A) (A)
                 (A) (A) (A) (A) (A) (A) (A) (A) (A) (A) (A) (A)
                 (A) (A) (A) (A) (A) (A) (A) (A) (A) (A) (A) (A)
                 (A) (A) (A) (A) (A) (A) (A) (A) (A) (A) (A) (A)
                 (A) (A) (A) (A) (A) (A) (A) (A) (A) (A) (A) (A)
                 (A) (A) (A) (A) (A) (A) (A) (A) (A) (A) (A) (A)
                 (A) (A) (A) (A) (A) (A) (A) (A) (A) (A) (A) (A)
                 (A) (A) (A) (A) (A) (A) (A) (A) (A) (A) (A) (A)
                 (A) (A) (A) (A) (A) (A) (A) (A) (A) (A) (A) (A)
                 (A) (A) (A) (A) (A) (A) (A) (A) (A) (A) (A) (A)
                 (A) (A) (A) (A) (A) (A) (A) (A) (A) (A) (A) (A)
                 (A) (A) (A) (A) (A) (A) (A) (A) (A) (A) (A) (A)
                 (A) (A) (A) (A) (A) (A) (A) (A) (A) (A) (A) (A)
                 (A) (A) (A) (A) (A) (A) (A) (A) (A) (A) (A) (A)
                 (A) (A) (A) (A) (A) (A) (A) (A) (A) (A) (A) (A)
                 (A) (A) (A) (A) (A) (A) (A) (A) (A) (A) (A) (A)
                 (A) (A) (A) (A) (A) (A) (A) (A) (A) (A) (A) (A)
                 (A) (A) (A) (A) (A) (A) (A) (A) (A) (A) (A) (A)
                 (A) (A) (A) (A) (A) (A) (A) (A) (A) (A) (A) (A)
                 (A) (A) (A) (A) (A) (A) (A) (A) (A) (A) (A) (A)
                 (A) (A) (A) (A) (A) (A) (A) (A) (A) (A) (A) (A)
                 (A) (A) (A) (A) (A) (A) (A) (A) (A) (A) (A) (A)
                 (A) (A) (A) (A) (A) (A) (A) (A) (A) (A) (A) (A)
                 (A) (A) (A) (A) (A) (A) (A) (A) (A) (A) (A) (A)
                 (A) (A) (A) (A) (A) (A) (A) (A) (A) (A) (A) (A)
                 (A) (A) (A) (A) (A) (A) (A) (A) (A) (A) (A) (A)
                 (A) (A) (A) (A) (A) (A) (A) (A) (A) (A) (A) (A)
                 (A) (A) (A) (A) (A) (A) (A) (A) (A) (A) (A) (A)
                 (A) (A) (A) (A) (A) (A) (A) (A) (A) (A) (A) (A)
                 (A) (A) (A) (A) (A) (A) (A) (A) (A) (A) (A) (A)
                 (A) (A) (A) (A) (A) (A) (A) (A) (A) (A) (A) (A)
                 (A) (A) (A) (A) (A) (A) (A) (A) (A) (A) (A) (A)
                 (A) (A) (A) (A) (A) (A) (A) (A) (A) (A) (A) (A)
                 (A) (A) (A) (A) (A) (A) (A) (A) (A) (A) (A) (A)
                 (A) (A) (A) (A) (A) (A) (A) (A) (A) (A) (A) (A)
                 (A) (A) (A) (A) (A) (A) (A) (A) (A) (A) (A) (A)
                 (A) (A) (A) (A) (A) (A) (A) (A) (A) (A) (A) (A)
                 (A) (A) (A) (A) (A) (A) (A) (A) (A) (A) (A) (A)
                 (A) (A) (A) (A) (A) (A) (A) (A) (A) (A) (A) (A)
                 (A) (A) (A) (A) (A) (A) (A) (A) (A) (A) (A) (A)
                 (A) (A) (A) (A) (A) (A) (A) (A) (A) (A) (A) (A)
                 (A) (A) (A) (A) (A) (A) (A) (A) (A) (A) (A) (A)
                 (A) (A) (A) (A) (A) (A) (A) (A) (A) (A) (A) (A)
                 (A) (A) (A) (A) (A) (A) (A) (A) (A) (A) (A) (A)
                 (A) (A) (A) (A) (A) (A) (A) (A) (A) (A) (A) (A)
                 (A) (A) (A) (A) (A) (A) (A) (A) (A) (A) (A) (A)
                 (A) (A) (A) (A) (A) (A) (A) (A) (A) (A) (A) (A)
                 (A) (A) (A) (A) (A) (A) (A) (A) (A) (A) (A) (A)
                 (A) (A) (A) (A) (A) (A) (A) (A) (A) (A) (A) (A)
                 (A) (A) (A) (A) (A) (A) (A) (A) (A) (A) (A) (A)
                 (A) (A) (A) (A) (A) (A) (A) (A) (A) (A) (A) (A)
                 (A) (A) (A) (A) (A) (A) (A) (A) (A) (A) (A) (A)
                 (A) (A) (A) (A) (A) (A) (A) (A) (A) (A) (A) (A)
                 (A) (A) (A) (A) (A) (A) (A) (A) (A) (A) (A) (A)
                 (A) (A) (A) (A) (A) (A) (A) (A) (A) (A) (A) (A)
                 (A) (A) (A) (A) (A) (A) (A) (A) (A) (A) (A) (A)
                 (A) (A) (A) (A) (A) (A) (A) (A) (A) (A) (A) (A)
                 (A) (A) (A) (A) (A) (A) (A) (A) (A) (A) (A) (A)
                 (A) (A) (A) (A) (A) (A) (A) (A) (A) (A) (A) (A)
                 (A) (A) (A) (A) (A) (A) (A) (A) (A) (A) (A) (A)
                 (A) (A) (A) (A) (A) (A) (A) (A) (A) (A) (A) (A)
                 (A) (A) (A) (A) (A) (A) (A) (A) (A) (A) (A) (A)
                 (A) (A) (A) (A) (A) (A) (A) (A) (A) (A) (A) (A)
                 (A) (A) (A) (A) (A) (A) (A) (A) (A) (A) (A) (A)
                 (A) (A) (A) (A) (A) (A) (A) (A) (A) (A) (A) (A)
                 (A) (A) (A) (A) (A) (A) (A) (A) (A) (A) (A) (A)
                 (A) (A) (A) (A) (A) (A) (A) (A) (A) (A) (A) (A)
                 (A) (A) (A) (A) (A) (A) (A) (A) (A) (A) (A) (A)
                 (A) (A) (A) (A) (A) (A) (A) (A) (A) (A) (A) (A)
                 (A) (A) (A) (A) (A) (A) (A) (A) (A) (A) (A) (A)
                 (A) (A) (A) (A) (A) (A) (A) (A) (A) (A) (A) (A)
                 (A) (A) (A) (A) (A) (A) (A) (A) (A) (A) (A) (A)
                 (A) (A) (A) (A) (A) (A) (A) (A) (A) (A) (A) (A)
                 (A) (A) (A) (A) (A) (A) (A) (A) (A) (A) (A) (A)
                 (A) (A) (A) (A) (A) (A) (A) (A) (A) (A) (A) (A)
                 (A) (A) (A) (A) (A) (A) (A) (A) (A) (A) (A) (A)
                 (A) (A) (A) (A) (A) (A) (A) (A) (A) (A) (A) (A)
                 (A) (A) (A) (A) (A) (A) (A) (A) (A) (A) (A) (A)
                 (A) (A) (A) (A) (A) (A) (A) (A) (A) (A) (A) (A)
                 (A) (A) (A) (A) (A) (A) (A) (A) (A) (A) (A) (A)
                 (A) (A) (A) (A) (A) (A) (A) (A) (A) (A) (A) (A)
                 (A) (A) (A) (A) (A) (A) (A) (A) (A) (A) (A) (A)
                 (A) (A) (A) (A) (A) (A) (A) (A) (A) (A) (A) (A)
                 (A) (A) (A) (A) (A) (A) (A) (A) (A) (A) (A) (A)
                 (A) (A) (A) (A) (A) (A) (A) (A) (A) (A) (A) (A)
                 (A) (A) (A) (A) (A) (A) (A) (A) (A) (A) (A) (A)
                 (A) (A) (A) (A) (A) (A) (A) (A) (A) (A) (A) (A)
                 (A) (A) (A) (A) (A) (A) (A) (A) (A) (A) (A) (A)
                 (A) (A) (A) (A) (A) (A) (A) (A) (A) (A) (A) (A)
                 (A) (A) (A) (A) (A) (A) (A) (A) (A) (A) (A) (A)
                 (A) (A) (A) (A) (A) (A) (A) (A) (A) (A) (A) (A)
                 (A) (A) (A) (A) (A) (A) (A) (A) (A) (A) (A) (A)
                 (A) (A) (A) (A) (A) (A) (A) (A) (A) (A) (A) (A)
                 (A) (A) (A) (A) (A) (A) (A) (A) (A) (A) (A) (A)
                 (A) (A) (A) (A) (A) (A) (A) (A) (A) (A) (A) (A)
                 (A) (A) (A) (A) (A) (A) (A) (A) (A) (A) (A) (A)
                 (A) (A) (A) (A) (A) (A) (A) (A) (A) (A) (A) (A)
                 (A) (A) (A) (A) (A) (A) (A) (A) (A) (A) (A) (A)
                 (A) (A) (A) (A) (A) (A) (A) (A) (A) (A) (A) (A)
                 (A) (A) (A) (A) (A) (A) (A) (A) (A) (A) (A) (A)
                 (A) (A) (A) (A) (A) (A) (A) (A) (A) (A) (A) (A)
                 (A) (A) (A) (A) (A) (A) (A) (A) (A) (A) (A) (A)
                 (A) (A) (A) (A) (A) (A) (A) (A) (A) (A) (A) (A)
                 (A) (A) (A) (A) (A) (A) (A) (A) (A) (A) (A) (A)
                 (A) (A) (A) (A) (A) (A) (A) (A) (A) (A) (A) (A)
                 (A) (A) (A) (A) (A) (A) (A) (A) (A) (A) (A) (A)
                 (A) (A) (A) (A) (A) (A) (A) (A) (A) (A) (A) (A)
                 (A) (A) (A) (A) (A) (A) (A) (A) (A) (A) (A) (A)
                 (A) (A) (A) (A) (A) (A) (A) (A) (A) (A) (A) (A)
                 (A) (A) (A) (A) (A) (A) (A) (A) (A) (A) (A) (A)
                 (A) (A) (A) (A) (A) (A) (A) (A) (A) (A) (A) (A)
                 (A) (A) (A) (A) (A) (A) (A) (A) (A) (A) (A) (A)
                 (A) (A) (A) (A) (A) (A) (A) (A) (A) (A) (A) (A)
                 (A) (A) (A) (A) (A) (A) (A) (A) (A) (A) (A) (A)
                 (A) (A) (A) (A) (A) (A) (A) (A) (A) (A) (A) (A)
                 (A) (A) (A) (A) (A) (A) (A) (A) (A) (A) (A) (A)
                 (A) (A) (A) (A) (A) (A) (A) (A) (A) (A) (A) (A)
                 (A) (A) (A) (A) (A) (A) (A) (A) (A) (A) (A) (A)
                 (A) (A) (A) (A) (A) (A) (A) (A) (A) (A) (A) (A)
                 (A) (A) (A) (A) (A) (A) (A) (A) (A) (A) (A) (A)
                 (A) (A) (A) (A) (A) (A) (A) (A) (A) (A) (A) (A)
                 (A) (A) (A) (A) (A) (A) (A) (A) (A) (A) (A) (A)
                 (A) (A) (A) (A) (A) (A) (A) (A) (A) (A) (A) (A)
                 (A) (A) (A) (A) (A) (A) (A) (A) (A) (A) (A) (A)
                 (A) (A) (A) (A) (A) (A) (A) (A) (A) (A) (A) (A)
                 (A) (A) (A) (A) (A) (A) (A) (A) (A) (A) (A) (A)
                 (A) (A) (A) (A) (A) (A) (A) (A) (A) (A) (A) (A)
                 (A) (A) (A) (A) (A) (A) (A) (A) (A) (A) (A) (A)
                 (A) (A) (A) (A) (A) (A) (A) (A) (A) (A) (A) (A)
                 (A) (A) (A) (A) (A) (A) (A) (A) (A) (A) (A) (A)
                 (A) (A) (A) (A) (A) (A) (A) (A) (A) (A) (A) (A)
                 (A) (A) (A) (A) (A) (A) (A) (A) (A) (A) (A) (A)
                 (A) (A) (A) (A) (A) (A) (A) (A) (A) (A) (A) (A)
                 (A) (A) (A) (A) (A) (A) (A) (A) (A) (A) (A) (A)
                 (A) (A) (A) (A) (A) (A) (A) (A) (A) (A) (A) (A)
                 (A) (A) (A) (A) (A) (A) (A) (A) (A) (A) (A) (A)
                 (A) (A) (A) (A) (A) (A) (A) (A) (A) (A) (A) (A)
                 (A) (A) (A) (A) (A) (A) (A) (A) (A) (A) (A) (A)
                 (A) (A) (A) (A) (A) (A) (A) (A) (A) (A) (A) (A)
                 (A) (A) (A) (A) (A) (A) (A) (A) (A) (A) (A) (A)
                 (A) (A) (A) (A) (A) (A) (A) (A) (A) (A) (A) (A)
                 (A) (A) (A) (A) (A) (A) (A) (A) (A) (A) (A) (A)
                 (A) (A) (A) (A) (A) (A) (A) (A) (A) (A) (A) (A)
                 (A) (A) (A) (A) (A) (A) (A) (A) (A) (A) (A) (A)
                 (A) (A) (A) (A) (A) (A) (A) (A) (A) (A) (A) (A)
                 (A) (A) (A) (A) (A) (A) (A) (A) (A) (A) (A) (A)
                 (A) (A) (A) (A) (A) (A) (A) (A) (A) (A) (A) (A)
                 (A) (A) (A) (A) (A) (A) (A) (A) (A) (A) (A) (A)
                 (A) (A) (A) (A) (A) (A) (A) (A) (A) (A) (A) (A)
                 (A) (A) (A) (A) (A) (A) (A) (A) (A) (A) (A) (A)
                 (A) (A) (A) (A) (A) (A) (A) (A) (A) (A) (A) (A)
                 (A) (A) (A) (A) (A) (A) (A) (A) (A) (A) (A) (A)
                 (A) (A) (A) (A) (A) (A) (A) (A) (A) (A) (A) (A)
                 (A) (A) (A) (A) (A) (A) (A) (A) (A) (A) (A) (A)
                 (A) (A) (A) (A) (A) (A) (A) (A) (A) (A) (A) (A)
                 (A) (A) (A) (A) (A) (A) (A) (A) (A) (A) (A) (A)
                 (A) (A) (A) (A) (A) (A) (A) (A) (A) (A) (A) (A)
                 (A) (A) (A) (A) (A) (A) (A) (A) (A) (A) (A) (A)
                 (A) (A) (A) (A) (A) (A) (A) (A) (A) (A) (A) (A)
                 (A) (A) (A)
 The electronic state is 3-A.
 Alpha  occ. eigenvalues -- -234.21125-234.17969-234.17672-234.17580-144.21319
 Alpha  occ. eigenvalues --  -26.84221 -26.80609 -26.76541 -26.76032 -22.99241
 Alpha  occ. eigenvalues --  -22.98962 -22.98935 -22.95566 -22.95465 -22.95001
 Alpha  occ. eigenvalues --  -22.92699 -22.92357 -22.92283 -22.92211 -22.91800
 Alpha  occ. eigenvalues --  -22.91623 -18.69843 -18.69311 -18.67862 -18.67802
 Alpha  occ. eigenvalues --  -18.67597 -18.67262 -18.67194 -18.67018 -18.66891
 Alpha  occ. eigenvalues --  -18.66770 -18.66641 -18.66600 -18.66228 -18.66068
 Alpha  occ. eigenvalues --  -18.65491 -18.65150 -18.64976 -18.64506 -18.64484
 Alpha  occ. eigenvalues --  -18.64304 -18.62534 -18.62142 -14.87390 -13.99710
 Alpha  occ. eigenvalues --  -13.98475 -13.95177 -13.94108 -13.88069 -12.07451
 Alpha  occ. eigenvalues --  -12.07430 -12.07404  -9.94886  -9.92331  -9.92097
 Alpha  occ. eigenvalues --   -9.92009  -9.91801  -9.91552  -9.90918  -9.89472
 Alpha  occ. eigenvalues --   -9.88056  -9.87973  -9.87753  -9.87319  -9.85541
 Alpha  occ. eigenvalues --   -9.84166  -9.83474  -9.83156  -9.82843  -9.82393
 Alpha  occ. eigenvalues --   -9.82318  -9.82196  -9.81774  -9.81732  -9.81628
 Alpha  occ. eigenvalues --   -9.81496  -9.81474  -9.81216  -9.80955  -9.80426
 Alpha  occ. eigenvalues --   -3.00175  -2.98753  -2.86941  -2.86588  -1.90715
 Alpha  occ. eigenvalues --   -1.90186  -1.90149  -1.89290  -1.89114  -1.88550
 Alpha  occ. eigenvalues --   -1.77996  -1.77700  -1.77372  -1.76911  -1.76714
 Alpha  occ. eigenvalues --   -1.76570  -1.48873  -0.90491  -0.89090  -0.88982
 Alpha  occ. eigenvalues --   -0.88763  -0.88564  -0.88495  -0.88138  -0.87769
 Alpha  occ. eigenvalues --   -0.85116  -0.82945  -0.82447  -0.81793  -0.81536
 Alpha  occ. eigenvalues --   -0.80994  -0.80604  -0.80543  -0.80487  -0.80376
 Alpha  occ. eigenvalues --   -0.80181  -0.80070  -0.79014  -0.78847  -0.74916
 Alpha  occ. eigenvalues --   -0.74235  -0.73793  -0.71846  -0.71599  -0.70861
 Alpha  occ. eigenvalues --   -0.68995  -0.68899  -0.68531  -0.65504  -0.62629
 Alpha  occ. eigenvalues --   -0.62364  -0.62074  -0.61835  -0.61501  -0.60091
 Alpha  occ. eigenvalues --   -0.58494  -0.57933  -0.54961  -0.53694  -0.50939
 Alpha  occ. eigenvalues --   -0.50797  -0.50305  -0.50208  -0.49837  -0.49824
 Alpha  occ. eigenvalues --   -0.48366  -0.47582  -0.44467  -0.44043  -0.41711
 Alpha  occ. eigenvalues --   -0.41240  -0.41077  -0.40865  -0.40766  -0.40385
 Alpha  occ. eigenvalues --   -0.39794  -0.39449  -0.39185  -0.38581  -0.38361
 Alpha  occ. eigenvalues --   -0.38315  -0.37642  -0.36033  -0.35640  -0.35155
 Alpha  occ. eigenvalues --   -0.34715  -0.34656  -0.34375  -0.34272  -0.33987
 Alpha  occ. eigenvalues --   -0.33928  -0.33758  -0.33675  -0.33512  -0.33372
 Alpha  occ. eigenvalues --   -0.33344  -0.33080  -0.32862  -0.32787  -0.32760
 Alpha  occ. eigenvalues --   -0.32536  -0.32457  -0.32022  -0.31887  -0.31695
 Alpha  occ. eigenvalues --   -0.31483  -0.31037  -0.30946  -0.30167  -0.29928
 Alpha  occ. eigenvalues --   -0.29692  -0.28804  -0.28735  -0.28564  -0.28183
 Alpha  occ. eigenvalues --   -0.28148  -0.27933  -0.27638  -0.27544  -0.27404
 Alpha  occ. eigenvalues --   -0.27395  -0.27289  -0.27132  -0.26917  -0.26830
 Alpha  occ. eigenvalues --   -0.26701  -0.26629  -0.26521  -0.26279  -0.26049
 Alpha  occ. eigenvalues --   -0.25550  -0.25307  -0.25140  -0.24990  -0.24752
 Alpha  occ. eigenvalues --   -0.24659  -0.24579  -0.24349  -0.23982  -0.23814
 Alpha  occ. eigenvalues --   -0.23720  -0.23502  -0.23363  -0.23281  -0.23066
 Alpha  occ. eigenvalues --   -0.22867  -0.22479  -0.22334  -0.22208  -0.21896
 Alpha  occ. eigenvalues --   -0.21710  -0.21281  -0.20851  -0.20794  -0.19920
 Alpha  occ. eigenvalues --   -0.19663  -0.19274  -0.19064  -0.18696  -0.18437
 Alpha  occ. eigenvalues --   -0.18346  -0.18109  -0.17775  -0.17588  -0.17466
 Alpha  occ. eigenvalues --   -0.17232  -0.17119  -0.17064  -0.17016  -0.16418
 Alpha  occ. eigenvalues --   -0.16186  -0.15941  -0.15827  -0.15569  -0.15375
 Alpha  occ. eigenvalues --   -0.15102  -0.15015  -0.14671  -0.14576  -0.14334
 Alpha  occ. eigenvalues --   -0.14223  -0.14175  -0.13788  -0.13502  -0.13234
 Alpha  occ. eigenvalues --   -0.12972  -0.12760  -0.12220  -0.11899  -0.11636
 Alpha  occ. eigenvalues --   -0.10881  -0.10576  -0.10436  -0.09805  -0.07844
 Alpha  occ. eigenvalues --   -0.02407
 Alpha virt. eigenvalues --   -0.01655  -0.01430  -0.01089  -0.00591   0.00381
 Alpha virt. eigenvalues --    0.00490   0.00814   0.01158   0.01790   0.03072
 Alpha virt. eigenvalues --    0.03659   0.03732   0.04333   0.05711   0.05875
 Alpha virt. eigenvalues --    0.05971   0.06395   0.06667   0.06806   0.07092
 Alpha virt. eigenvalues --    0.07395   0.07719   0.08262   0.08326   0.08869
 Alpha virt. eigenvalues --    0.09030   0.09245   0.09753   0.09950   0.10304
 Alpha virt. eigenvalues --    0.10516   0.11131   0.11282   0.11499   0.11684
 Alpha virt. eigenvalues --    0.12029   0.12382   0.12616   0.12956   0.13272
 Alpha virt. eigenvalues --    0.13816   0.14111   0.14163   0.14313   0.14580
 Alpha virt. eigenvalues --    0.14751   0.14964   0.15250   0.15539   0.15586
 Alpha virt. eigenvalues --    0.16044   0.16160   0.16305   0.16512   0.16626
 Alpha virt. eigenvalues --    0.16717   0.16805   0.16838   0.17050   0.17271
 Alpha virt. eigenvalues --    0.17396   0.17590   0.17659   0.17807   0.17896
 Alpha virt. eigenvalues --    0.18166   0.18427   0.18589   0.18854   0.19068
 Alpha virt. eigenvalues --    0.19210   0.19318   0.19418   0.19463   0.19655
 Alpha virt. eigenvalues --    0.19804   0.20172   0.20308   0.20490   0.20508
 Alpha virt. eigenvalues --    0.20748   0.20872   0.21070   0.21161   0.21468
 Alpha virt. eigenvalues --    0.21666   0.21824   0.22034   0.22320   0.22404
 Alpha virt. eigenvalues --    0.22470   0.22826   0.22987   0.23190   0.23317
 Alpha virt. eigenvalues --    0.23492   0.23723   0.23842   0.23986   0.24049
 Alpha virt. eigenvalues --    0.24467   0.24601   0.24884   0.25018   0.25073
 Alpha virt. eigenvalues --    0.25266   0.25657   0.25981   0.26087   0.26391
 Alpha virt. eigenvalues --    0.26459   0.26796   0.27113   0.27188   0.27385
 Alpha virt. eigenvalues --    0.27501   0.27770   0.27928   0.28053   0.28269
 Alpha virt. eigenvalues --    0.28535   0.28633   0.28928   0.29045   0.29211
 Alpha virt. eigenvalues --    0.29318   0.29411   0.29520   0.29888   0.30012
 Alpha virt. eigenvalues --    0.30291   0.30594   0.30796   0.30813   0.31030
 Alpha virt. eigenvalues --    0.31537   0.31810   0.31983   0.32127   0.32305
 Alpha virt. eigenvalues --    0.32609   0.32936   0.32955   0.33261   0.33510
 Alpha virt. eigenvalues --    0.33626   0.33734   0.33929   0.34285   0.34475
 Alpha virt. eigenvalues --    0.34719   0.35174   0.35271   0.35542   0.35616
 Alpha virt. eigenvalues --    0.35785   0.36093   0.36341   0.36468   0.36667
 Alpha virt. eigenvalues --    0.36938   0.37017   0.37239   0.37468   0.37697
 Alpha virt. eigenvalues --    0.37862   0.38089   0.38226   0.38384   0.38475
 Alpha virt. eigenvalues --    0.38993   0.39302   0.39539   0.39746   0.39870
 Alpha virt. eigenvalues --    0.40158   0.40185   0.40467   0.40836   0.41000
 Alpha virt. eigenvalues --    0.41227   0.41273   0.41416   0.41761   0.41880
 Alpha virt. eigenvalues --    0.42048   0.42179   0.42355   0.42696   0.42797
 Alpha virt. eigenvalues --    0.42927   0.43015   0.43208   0.43328   0.43535
 Alpha virt. eigenvalues --    0.43751   0.43978   0.44127   0.44174   0.44401
 Alpha virt. eigenvalues --    0.44497   0.44584   0.44778   0.44979   0.45049
 Alpha virt. eigenvalues --    0.45218   0.45317   0.45501   0.45532   0.45653
 Alpha virt. eigenvalues --    0.45783   0.45914   0.46097   0.46203   0.46452
 Alpha virt. eigenvalues --    0.46533   0.46650   0.46874   0.46900   0.47069
 Alpha virt. eigenvalues --    0.47123   0.47241   0.47513   0.47567   0.47683
 Alpha virt. eigenvalues --    0.47843   0.47931   0.48093   0.48118   0.48181
 Alpha virt. eigenvalues --    0.48309   0.48475   0.48680   0.48839   0.48841
 Alpha virt. eigenvalues --    0.48998   0.49224   0.49427   0.49544   0.49636
 Alpha virt. eigenvalues --    0.49816   0.49942   0.50016   0.50147   0.50290
 Alpha virt. eigenvalues --    0.50463   0.50556   0.50678   0.50835   0.51033
 Alpha virt. eigenvalues --    0.51201   0.51392   0.51573   0.51682   0.51811
 Alpha virt. eigenvalues --    0.51859   0.52113   0.52128   0.52275   0.52537
 Alpha virt. eigenvalues --    0.52661   0.52986   0.53092   0.53304   0.53372
 Alpha virt. eigenvalues --    0.53499   0.53817   0.53859   0.54184   0.54223
 Alpha virt. eigenvalues --    0.54441   0.54739   0.54900   0.54986   0.55115
 Alpha virt. eigenvalues --    0.55188   0.55528   0.55770   0.55944   0.56165
 Alpha virt. eigenvalues --    0.56359   0.56479   0.56701   0.56828   0.57144
 Alpha virt. eigenvalues --    0.57188   0.57447   0.57487   0.57650   0.57902
 Alpha virt. eigenvalues --    0.58215   0.58566   0.58727   0.58846   0.58982
 Alpha virt. eigenvalues --    0.59144   0.59544   0.59638   0.59725   0.59785
 Alpha virt. eigenvalues --    0.60186   0.60331   0.60625   0.60802   0.61136
 Alpha virt. eigenvalues --    0.61208   0.61376   0.61606   0.61804   0.62184
 Alpha virt. eigenvalues --    0.62405   0.62880   0.63092   0.63135   0.63456
 Alpha virt. eigenvalues --    0.63816   0.64026   0.64069   0.64352   0.64555
 Alpha virt. eigenvalues --    0.64705   0.65029   0.65268   0.65596   0.65694
 Alpha virt. eigenvalues --    0.66176   0.66539   0.66942   0.66998   0.67220
 Alpha virt. eigenvalues --    0.67408   0.68233   0.68308   0.68734   0.69129
 Alpha virt. eigenvalues --    0.69230   0.69422   0.69722   0.70085   0.70140
 Alpha virt. eigenvalues --    0.70346   0.70775   0.70942   0.71270   0.71873
 Alpha virt. eigenvalues --    0.72145   0.72646   0.72716   0.72899   0.73269
 Alpha virt. eigenvalues --    0.73359   0.73918   0.74140   0.74209   0.74604
 Alpha virt. eigenvalues --    0.75131   0.75190   0.75345   0.75499   0.75759
 Alpha virt. eigenvalues --    0.76102   0.76191   0.76550   0.77055   0.77481
 Alpha virt. eigenvalues --    0.77933   0.78119   0.78278   0.78470   0.78953
 Alpha virt. eigenvalues --    0.79044   0.79265   0.79653   0.79966   0.80261
 Alpha virt. eigenvalues --    0.80646   0.80777   0.81306   0.81399   0.81603
 Alpha virt. eigenvalues --    0.81708   0.81890   0.81995   0.82694   0.82849
 Alpha virt. eigenvalues --    0.82957   0.83305   0.83614   0.83862   0.84086
 Alpha virt. eigenvalues --    0.84262   0.84354   0.84829   0.84948   0.85122
 Alpha virt. eigenvalues --    0.85449   0.85622   0.85835   0.86058   0.86440
 Alpha virt. eigenvalues --    0.86744   0.86776   0.87177   0.87448   0.87752
 Alpha virt. eigenvalues --    0.87812   0.88095   0.88291   0.88495   0.88780
 Alpha virt. eigenvalues --    0.88840   0.89334   0.89620   0.89752   0.89933
 Alpha virt. eigenvalues --    0.90165   0.90440   0.90550   0.90679   0.91284
 Alpha virt. eigenvalues --    0.91432   0.91761   0.91915   0.92133   0.92324
 Alpha virt. eigenvalues --    0.92628   0.92913   0.93101   0.93286   0.93806
 Alpha virt. eigenvalues --    0.93827   0.94061   0.94484   0.94750   0.94862
 Alpha virt. eigenvalues --    0.95161   0.95276   0.95819   0.96085   0.96357
 Alpha virt. eigenvalues --    0.96535   0.96931   0.97157   0.97230   0.97436
 Alpha virt. eigenvalues --    0.97636   0.97971   0.98326   0.98671   0.98799
 Alpha virt. eigenvalues --    0.98975   0.99181   0.99543   0.99916   1.00098
 Alpha virt. eigenvalues --    1.00638   1.00762   1.01102   1.01231   1.01615
 Alpha virt. eigenvalues --    1.01755   1.01872   1.02185   1.02470   1.02997
 Alpha virt. eigenvalues --    1.03271   1.03459   1.03743   1.04100   1.04380
 Alpha virt. eigenvalues --    1.04971   1.05007   1.05307   1.05412   1.05687
 Alpha virt. eigenvalues --    1.05769   1.06254   1.06525   1.06694   1.06805
 Alpha virt. eigenvalues --    1.07117   1.07284   1.08035   1.08088   1.08318
 Alpha virt. eigenvalues --    1.08448   1.08634   1.09117   1.09291   1.09608
 Alpha virt. eigenvalues --    1.09933   1.09956   1.10346   1.10462   1.10964
 Alpha virt. eigenvalues --    1.11195   1.11425   1.11720   1.12041   1.12303
 Alpha virt. eigenvalues --    1.12409   1.12521   1.12759   1.12896   1.13118
 Alpha virt. eigenvalues --    1.13482   1.13702   1.14168   1.14270   1.14330
 Alpha virt. eigenvalues --    1.14438   1.15008   1.15164   1.15265   1.15515
 Alpha virt. eigenvalues --    1.15761   1.16108   1.16241   1.16420   1.16576
 Alpha virt. eigenvalues --    1.17028   1.17249   1.17577   1.17720   1.17860
 Alpha virt. eigenvalues --    1.18180   1.18230   1.18661   1.18928   1.18989
 Alpha virt. eigenvalues --    1.19362   1.19645   1.19736   1.20004   1.20333
 Alpha virt. eigenvalues --    1.20697   1.20726   1.21264   1.21484   1.21533
 Alpha virt. eigenvalues --    1.21756   1.22262   1.22801   1.22978   1.23124
 Alpha virt. eigenvalues --    1.23253   1.23686   1.23735   1.24045   1.24374
 Alpha virt. eigenvalues --    1.24662   1.24912   1.25078   1.25766   1.26184
 Alpha virt. eigenvalues --    1.26404   1.26485   1.26717   1.27154   1.27460
 Alpha virt. eigenvalues --    1.27513   1.28111   1.28392   1.28815   1.29141
 Alpha virt. eigenvalues --    1.29340   1.29599   1.29763   1.30096   1.31113
 Alpha virt. eigenvalues --    1.31250   1.31418   1.32064   1.32376   1.32817
 Alpha virt. eigenvalues --    1.33607   1.33644   1.34068   1.34324   1.34690
 Alpha virt. eigenvalues --    1.35049   1.35674   1.35853   1.36138   1.36630
 Alpha virt. eigenvalues --    1.37189   1.37414   1.38134   1.38472   1.38933
 Alpha virt. eigenvalues --    1.39277   1.40003   1.40178   1.40615   1.41054
 Alpha virt. eigenvalues --    1.41216   1.41410   1.41998   1.42293   1.42597
 Alpha virt. eigenvalues --    1.42935   1.43480   1.43783   1.44232   1.44488
 Alpha virt. eigenvalues --    1.44788   1.45276   1.45339   1.45829   1.45844
 Alpha virt. eigenvalues --    1.46223   1.46403   1.46894   1.47168   1.47384
 Alpha virt. eigenvalues --    1.47961   1.48316   1.48903   1.49152   1.49456
 Alpha virt. eigenvalues --    1.50073   1.50340   1.50453   1.50644   1.50732
 Alpha virt. eigenvalues --    1.51222   1.51267   1.51478   1.51870   1.51926
 Alpha virt. eigenvalues --    1.52360   1.52599   1.52801   1.53120   1.53276
 Alpha virt. eigenvalues --    1.53443   1.53531   1.53693   1.54042   1.54110
 Alpha virt. eigenvalues --    1.54297   1.54576   1.54600   1.54922   1.55141
 Alpha virt. eigenvalues --    1.55202   1.55485   1.55691   1.55785   1.56022
 Alpha virt. eigenvalues --    1.56036   1.56621   1.56798   1.56833   1.56914
 Alpha virt. eigenvalues --    1.57321   1.57632   1.57703   1.57931   1.58201
 Alpha virt. eigenvalues --    1.58309   1.58508   1.58611   1.58956   1.59200
 Alpha virt. eigenvalues --    1.59342   1.59560   1.59768   1.59854   1.60024
 Alpha virt. eigenvalues --    1.60288   1.60530   1.60710   1.60857   1.61255
 Alpha virt. eigenvalues --    1.61914   1.62098   1.62258   1.62568   1.62609
 Alpha virt. eigenvalues --    1.62910   1.62995   1.63385   1.63481   1.63865
 Alpha virt. eigenvalues --    1.63962   1.64353   1.64620   1.64709   1.65003
 Alpha virt. eigenvalues --    1.65331   1.65627   1.66042   1.66237   1.66582
 Alpha virt. eigenvalues --    1.66826   1.67075   1.67111   1.67427   1.67649
 Alpha virt. eigenvalues --    1.67818   1.68331   1.68635   1.69034   1.69260
 Alpha virt. eigenvalues --    1.69540   1.69684   1.70135   1.70655   1.70857
 Alpha virt. eigenvalues --    1.71314   1.71515   1.71756   1.71975   1.72313
 Alpha virt. eigenvalues --    1.72545   1.72884   1.73468   1.73770   1.73982
 Alpha virt. eigenvalues --    1.74150   1.74259   1.74651   1.74840   1.75072
 Alpha virt. eigenvalues --    1.75151   1.75634   1.75971   1.76140   1.76537
 Alpha virt. eigenvalues --    1.76857   1.77259   1.77675   1.77972   1.78500
 Alpha virt. eigenvalues --    1.78688   1.79019   1.79229   1.79501   1.79732
 Alpha virt. eigenvalues --    1.79838   1.79982   1.80354   1.80637   1.80807
 Alpha virt. eigenvalues --    1.81372   1.81462   1.81794   1.82016   1.82445
 Alpha virt. eigenvalues --    1.82664   1.83099   1.83306   1.83844   1.84021
 Alpha virt. eigenvalues --    1.84119   1.84586   1.85003   1.85567   1.85800
 Alpha virt. eigenvalues --    1.86104   1.86148   1.86784   1.87007   1.87317
 Alpha virt. eigenvalues --    1.87796   1.87866   1.88361   1.88728   1.88867
 Alpha virt. eigenvalues --    1.89040   1.89354   1.89811   1.90137   1.90263
 Alpha virt. eigenvalues --    1.90629   1.90892   1.91093   1.91367   1.91612
 Alpha virt. eigenvalues --    1.91935   1.92133   1.92388   1.92884   1.93022
 Alpha virt. eigenvalues --    1.93311   1.93526   1.94356   1.94837   1.95168
 Alpha virt. eigenvalues --    1.95514   1.95995   1.96209   1.96373   1.96487
 Alpha virt. eigenvalues --    1.96602   1.97161   1.97528   1.97782   1.97986
 Alpha virt. eigenvalues --    1.98445   1.99030   1.99111   1.99839   1.99921
 Alpha virt. eigenvalues --    2.00233   2.00471   2.00940   2.01063   2.01284
 Alpha virt. eigenvalues --    2.01724   2.02024   2.02515   2.02658   2.03139
 Alpha virt. eigenvalues --    2.03354   2.03571   2.04249   2.04455   2.04630
 Alpha virt. eigenvalues --    2.04759   2.04851   2.05542   2.05561   2.05774
 Alpha virt. eigenvalues --    2.06160   2.06327   2.06542   2.07003   2.07204
 Alpha virt. eigenvalues --    2.07504   2.07905   2.08522   2.08823   2.09078
 Alpha virt. eigenvalues --    2.09218   2.09371   2.09971   2.10077   2.10313
 Alpha virt. eigenvalues --    2.10486   2.10807   2.10974   2.11353   2.11842
 Alpha virt. eigenvalues --    2.12286   2.12455   2.12782   2.13175   2.13997
 Alpha virt. eigenvalues --    2.14179   2.14633   2.14690   2.14796   2.15146
 Alpha virt. eigenvalues --    2.16029   2.16201   2.16806   2.17243   2.17719
 Alpha virt. eigenvalues --    2.17957   2.18252   2.18352   2.18892   2.18990
 Alpha virt. eigenvalues --    2.19478   2.19665   2.20346   2.20788   2.20883
 Alpha virt. eigenvalues --    2.21413   2.21979   2.22216   2.22543   2.22785
 Alpha virt. eigenvalues --    2.23242   2.23474   2.23514   2.23674   2.24033
 Alpha virt. eigenvalues --    2.24439   2.24794   2.25397   2.25755   2.26149
 Alpha virt. eigenvalues --    2.26350   2.26573   2.26984   2.27231   2.27349
 Alpha virt. eigenvalues --    2.27500   2.27678   2.28298   2.28405   2.28839
 Alpha virt. eigenvalues --    2.28885   2.29382   2.29589   2.29894   2.30311
 Alpha virt. eigenvalues --    2.30422   2.30894   2.30974   2.31159   2.31785
 Alpha virt. eigenvalues --    2.32007   2.32157   2.32271   2.32553   2.32871
 Alpha virt. eigenvalues --    2.33076   2.33349   2.33600   2.34069   2.34225
 Alpha virt. eigenvalues --    2.34376   2.34609   2.34754   2.35217   2.35717
 Alpha virt. eigenvalues --    2.35835   2.36038   2.36322   2.36578   2.36964
 Alpha virt. eigenvalues --    2.37211   2.37260   2.37477   2.37668   2.38342
 Alpha virt. eigenvalues --    2.38464   2.38897   2.38973   2.39212   2.39489
 Alpha virt. eigenvalues --    2.39758   2.40228   2.40627   2.40964   2.41070
 Alpha virt. eigenvalues --    2.41294   2.41587   2.41844   2.42248   2.42558
 Alpha virt. eigenvalues --    2.42824   2.43238   2.43375   2.43518   2.43839
 Alpha virt. eigenvalues --    2.44035   2.44568   2.45332   2.45537   2.45732
 Alpha virt. eigenvalues --    2.46114   2.46258   2.46576   2.46939   2.47110
 Alpha virt. eigenvalues --    2.47774   2.48089   2.48462   2.48919   2.49315
 Alpha virt. eigenvalues --    2.49489   2.49814   2.49986   2.50350   2.51021
 Alpha virt. eigenvalues --    2.51334   2.51603   2.51871   2.52437   2.52544
 Alpha virt. eigenvalues --    2.53135   2.53342   2.53436   2.53652   2.54057
 Alpha virt. eigenvalues --    2.54120   2.54408   2.54907   2.54939   2.55271
 Alpha virt. eigenvalues --    2.55502   2.55793   2.56226   2.56644   2.56828
 Alpha virt. eigenvalues --    2.57001   2.57200   2.57375   2.57552   2.57678
 Alpha virt. eigenvalues --    2.57989   2.58248   2.58325   2.58672   2.58799
 Alpha virt. eigenvalues --    2.58998   2.59247   2.59532   2.59679   2.60097
 Alpha virt. eigenvalues --    2.60165   2.60354   2.61199   2.61346   2.61459
 Alpha virt. eigenvalues --    2.61827   2.62250   2.62439   2.62678   2.62993
 Alpha virt. eigenvalues --    2.63411   2.63612   2.63680   2.64087   2.64184
 Alpha virt. eigenvalues --    2.64320   2.64718   2.64788   2.65040   2.65173
 Alpha virt. eigenvalues --    2.65765   2.65975   2.66296   2.66737   2.67191
 Alpha virt. eigenvalues --    2.67597   2.67850   2.68005   2.68135   2.68463
 Alpha virt. eigenvalues --    2.69112   2.69413   2.69784   2.69923   2.70113
 Alpha virt. eigenvalues --    2.70510   2.70626   2.71039   2.71209   2.71611
 Alpha virt. eigenvalues --    2.72069   2.72399   2.73160   2.74055   2.74219
 Alpha virt. eigenvalues --    2.74684   2.74771   2.75084   2.75304   2.75952
 Alpha virt. eigenvalues --    2.76105   2.76495   2.76676   2.77015   2.77340
 Alpha virt. eigenvalues --    2.77749   2.78354   2.78756   2.79552   2.80007
 Alpha virt. eigenvalues --    2.80117   2.80848   2.81168   2.81582   2.82034
 Alpha virt. eigenvalues --    2.82536   2.82776   2.83129   2.83487   2.83956
 Alpha virt. eigenvalues --    2.84046   2.84819   2.85100   2.85423   2.85603
 Alpha virt. eigenvalues --    2.85804   2.86418   2.86575   2.86648   2.86993
 Alpha virt. eigenvalues --    2.87264   2.87571   2.87944   2.88057   2.88224
 Alpha virt. eigenvalues --    2.88773   2.88997   2.89248   2.89710   2.89954
 Alpha virt. eigenvalues --    2.90944   2.91222   2.91326   2.91662   2.92002
 Alpha virt. eigenvalues --    2.93316   2.93534   2.93876   2.94214   2.94510
 Alpha virt. eigenvalues --    2.94978   2.95256   2.95941   2.96212   2.96390
 Alpha virt. eigenvalues --    2.97013   2.97331   2.97590   2.97687   2.98498
 Alpha virt. eigenvalues --    2.98719   2.99383   2.99555   3.00007   3.00293
[...]
 89,-0.00000678,0.00001695,0.00001915,0.00000045,-0.00000968,0.00001721
 ,0.00000587,0.00002094,0.00003689,-0.00001146,-0.00000546,0.00002099,-
 0.00000145,-0.00001106,0.00013835,0.00001641,-0.00006655,-0.00000185,-
 0.00000001,-0.00000159,0.00000096,-0.00000059,0.00000019,0.00000444,0.
 00000216,0.00000180,0.00000578,-0.00000284,-0.00000067,-0.00004223,0.0
 0001812,-0.00000016,0.00002019,-0.00000271,0.00000072,0.00004758,-0.00
 000573,0.00000423,-0.00000057,0.00000030,0.00000163,0.00000241,-0.0000
 0029,-0.00000442,-0.00004769,-0.00001347,0.00003094,0.00002718,0.00000
 789,-0.00000663,0.00003749,0.00000448,-0.00003697,0.00000130,-0.000003
 42,0.00000203,0.00000778,0.00000248,-0.00000364,-0.00002146,-0.0000607
 1,0.00000496,0.00000667,-0.00000442,-0.00000053,0.00001258,-0.00000225
 ,0.00000561,0.00002611,-0.00000219,-0.00000076,0.00000206,0.00002700,-
 0.00000860,-0.00003193,-0.00004444,0.00001113,0.00002079,0.00000617,-0
 .00000919,-0.00001013,0.00003311,0.00000801,0.00001904,-0.00000642,-0.
 00000158,0.00000460,-0.00000831,-0.00000258,-0.00000206,-0.00000780,-0
 .00000433,-0.00001165,0.00000189,0.00000108,-0.00001749,-0.00008951,0.
 00002126,0.00002512,0.00006468,-0.00001906,0.00005154,0.00004146,-0.00
 001615,0.00826082,0.10075520,-0.23269969,0.00370933,0.00027707,0.00101
 104,-0.00075129,-0.00069642,0.00032441,-0.00059120,0.00069027,0.000434
 50,0.00098440,0.00041389,0.00003407,-0.00000962,-0.00017345,0.00055472
 ,-0.00000094,-0.00001630,-0.00000969,0.00001049,0.00000438,-0.00001307
 ,0.00000304,-0.00000355,0.00000946,-0.00004307,0.00000845,-0.00001969,
 -0.00006249,0.00008236,-0.00003493,0.00003778,-0.00001708,0.00002337,0
 .00007685,-0.00005689,0.00000280,-0.00005972,-0.00000119,0.00002002,0.
 00002507,-0.00000229,-0.00000864,0.00006895,-0.00002316,-0.00001039,0.
 00000588,0.00000948,0.00000069,-0.00002301,0.00000754,0.00000924,-0.00
 003781,0.00008178,-0.00005287,0.00001732,-0.00002860,0.00001983,0.0000
 5443,-0.00005460,0.00003532,-0.00000313,0.00006205,-0.00001457,-0.0000
 0207,-0.00000144,0.00000009,0.00000791,-0.00000634,0.00000034,-0.00023
 826,0.00000855,0.00009357,0.00000153,0.00000015,0.00000215,0.00000172,
 0.00000168,-0.00000013,0.00032052,0.01044042,-0.01833678,-0.00043509,0
 .00151286,-0.00388519,-0.00020107,0.00006433,-0.00010602,-0.00007554,0
 .00008470,-0.00009843,-0.00002056,-0.00001580,0.00003727,-0.00000156,0
 .00000324,0.00000121,0.00000842,-0.00003357,0.00001088,-0.00000285,0.0
 0001131,0.00000129,0.00001219,-0.00000014,-0.00000349,-0.00000176,-0.0
 0000155,0.00000106,0.00000290,-0.00000066,0.00000076,0.00000205,-0.000
 00179,-0.00000140,0.00000093,-0.00000796,-0.00000162,0.00000286,0.0000
 0124,-0.00001316,0.00000586,-0.00000488,0.00000254,0.00000193,0.000011
 37,-0.00001807,-0.00000008,-0.00000197,0.00000234,0.00000015,0.0000020
 3,-0.00000164,-0.00000115,0.00000260,0.00000220,0.00000071,-0.00000164
 ,-0.00000042,-0.00000309,0.00000356,-0.00000583,-0.00000154,0.00000606
 ,-0.00000046,-0.00000205,0.00000425,0.00000197,-0.00000132,0.00001879,
 0.00000731,0.00001092,-0.00000809,0.00000368,0.00001372,0.00001334,0.0
 0001506,-0.00000090,-0.00000612,0.00002265,0.00000197,0.00000194,-0.00
 000459,0.00000374,0.00000610,0.00000279,0.00000385,-0.00001586,-0.0000
 1120,0.00001482,0.00000259,-0.00001223,-0.00000436,-0.00000386,0.00000
 392,0.00001080,0.00002425,0.00001599,-0.00001134,0.00000539,0.00001075
 ,0.00001059,0.00001749,-0.00002552,-0.00000655,0.00000037,0.00000547,0
 .00001718,-0.00000275,-0.00000882,-0.00001135,0.00000256,0.00000229,-0
 .00000492,-0.00001196,-0.00000880,-0.00000646,-0.00000590,-0.00000346,
 -0.00000004,-0.00000214,0.00000122,0.00000106,-0.00000083,-0.00000509,
 -0.01111367,-0.11341948,0.25269966,0.00008680,0.00007831,0.00003529,-0
 .00005350,-0.00018914,0.00024660,-0.00001118,0.00005599,-0.00016398,-0
 .00002617,0.00002421,-0.00008121,-0.00001295,0.00003012,-0.00001112,-0
 .00000539,0.00005643,-0.00000957,-0.00005058,-0.00000890,-0.00012439,0
 .00001565,-0.00000854,0.00003869,0.00001379,-0.00000651,-0.00000265,0.
 00001700,0.00000202,0.00004470,0.00000145,0.00000004,0.00000020,-0.000
 00051,0.,0.00000070,-0.00000187,-0.00000124,-0.00000051,-0.00000329,0.
 00000071,-0.00000032,-0.00000210,0.00002539,0.00000869,-0.00000311,-0.
 00002469,-0.00000746,-0.00000411,-0.00000474,-0.00000817,0.,0.,-0.0000
 0027,-0.00000063,0.00000154,0.00000053,0.00000081,-0.00000091,-0.00000
 460,0.00000281,-0.00000140,0.00000309,0.00000102,-0.00000124,0.0000031
 3,-0.00000010,0.00000033,-0.00000006,-0.00000116,-0.00000032,0.0000006
 4,0.00000215,0.00000513,-0.00000298,-0.00000032,0.00000050,0.00000009,
 -0.00000126,-0.00000021,-0.00000071,-0.00000370,0.00000061,0.00000049,
 -0.00000006,-0.00000215,0.00000049,0.00000181,0.00000426,-0.00000124,-
 0.00000738,0.00000114,0.00000690,0.00000115,-0.00000296,0.00000164,-0.
 00000176,0.00000189,-0.00000142,-0.00000135,0.00000068,-0.00000060,0.0
 0000038,0.00000138,-0.00000208,0.00000179,0.00000154,0.00000048,0.0000
 1030,0.00000981,0.00000131,-0.00000580,-0.00000040,0.00000408,-0.00001
 010,-0.00000199,-0.00001050,-0.00000017,0.00000416,-0.00000744,-0.0000
 0151,-0.00001310,-0.00000613,-0.00000729,-0.00001904,0.00003652,0.0000
 1277,0.00001896,0.00000826,0.00003690,0.00000066,-0.00001734,-0.000032
 66,-0.00000929,0.00000577,0.00000280,-0.00000020,-0.00000204,-0.000007
 66,-0.00000208,0.00000318,-0.00000063,-0.00000194,-0.00000145,0.000003
 92,-0.00000036,0.00000013,-0.00000442,0.00000013,-0.00000767,0.0000111
 9,-0.00000347,0.00000193,-0.00000264,-0.00001050,0.00000979,0.00007827
 ,0.00004990,-0.00006287,-0.00001782,-0.00006459,0.00004052,0.00000163,
 -0.00004620,0.00008543,-0.05589796,-0.01611035,0.05072890,0.00137149,0
 .00340297,-0.01182751,-0.00073171,0.00209881,0.00088623,0.00048677,-0.
 00040642,0.00020366,0.00018539,0.00079882,-0.00097855,-0.00000043,-0.0
 0000542,0.00000353,0.00000061,-0.00000004,-0.00000063,-0.00000061,0.00
 000079,0.00000037,0.00002093,0.00000667,-0.00000235,0.00000088,0.00000
 066,0.00000054,-0.00000002,-0.00000062,-0.00000025,-0.00000067,0.00000
 136,0.00000277,0.00000160,-0.00000314,0.00000171,-0.00000067,0.0000031
 5,0.00000042,0.00000126,0.00001140,-0.00000832,0.00000069,0.00000177,-
 0.00000423,0.00000014,-0.00000001,0.00000031,-0.00000056,0.00000174,-0
 .00000208,0.00000049,-0.00000079,-0.00000016,0.00000380,0.00001468,-0.
 00000101,0.00000556,-0.00001340,-0.00000793,0.00000613,-0.00000205,-0.
 00000387,-0.00000026,-0.00000327,0.00000839,-0.00508252,-0.00874060,0.
 02857991,0.00211169,0.00481814,-0.01186111,0.00026697,-0.00042379,0.00
 037525,0.00042049,-0.00060126,-0.00030397,0.00000029,0.,-0.00000025,0.
 00000001,-0.00000052,0.00000005,-0.00000005,-0.00000028,-0.00000025,0.
 00000010,0.00000020,-0.00000013,0.00000011,-0.00000024,0.00000081,0.00
 000020,-0.00000068,0.00000014,0.00000025,-0.00000041,-0.00000039,0.000
 00494,0.00000399,0.00000062,-0.00000148,-0.00000003,0.00000007,-0.0000
 0021,-0.00000057,-0.00000108,0.00000045,0.00000058,-0.00000221,-0.0000
 0064,-0.00000064,0.00000096,-0.00000074,-0.00000033,-0.00000045,0.0000
 0005,0.00000188,0.00000209,0.00000154,-0.00000647,-0.00000068,0.000000
 19,0.00000196,-0.00000043,-0.00000464,-0.00001428,-0.00000567,-0.00000
 147,0.00000255,0.00000272,-0.00001738,-0.00000069,-0.00000920,0.000002
 41,0.00000867,-0.00001459,0.00000018,-0.00000849,0.00001093,-0.0000026
 5,0.00000106,-0.00000260,0.00000010,0.00000724,0.00000272,0.00000226,0
 .00000225,0.00000205,0.00000454,-0.00000558,0.00000070,-0.00000003,0.0
 0000024,0.00000088,-0.00000780,-0.00000481,0.00000240,0.05682875,-0.00
 014168,-0.00009036,-0.00008533,0.00010325,0.00067175,-0.00081564,-0.00
 000202,-0.00007657,-0.00022050,-0.00004635,-0.00003479,0.00001057,0.00
 009332,0.00000442,-0.00003418,-0.00001145,-0.00015056,0.00011030,0.000
 09501,-0.00002731,0.00021378,0.00002667,-0.00002484,0.00000041,-0.0000
 3727,-0.00001899,0.00013462,0.00002021,-0.00003169,-0.00002106,0.00000
 538,-0.00000034,0.00000143,-0.00000522,0.00000070,0.00000161,-0.000007
 75,-0.00000481,-0.00000312,-0.00000893,0.00000467,0.00000294,0.0000907
 0,-0.00003984,0.00000214,-0.00004276,0.00001174,-0.00000111,-0.0000708
 5,0.00000694,-0.00000429,-0.00000286,-0.00000051,0.00000059,-0.0000095
 4,0.00000201,0.00000554,0.00004711,0.00001088,-0.00004745,-0.00002049,
 -0.00000748,0.00002996,-0.00003264,-0.00002102,0.00008904,0.00000031,0
 .00000162,-0.00000029,-0.00000168,-0.00000104,-0.00000057,-0.00000535,
 -0.00000375,0.00000335,-0.00000359,0.00000513,-0.00000174,0.00000104,-
 0.00000272,-0.00000088,0.00004340,-0.00000568,0.00000512,0.00000662,0.
 00001788,-0.00000367,-0.00003276,-0.00001765,0.00000501,0.00005330,-0.
 00002029,0.00000246,0.00001124,-0.00000257,-0.00000083,-0.00000451,0.0
 0000794,-0.00000013,0.00000518,0.00000061,0.00000274,0.00000013,-0.000
 01164,0.00000719,0.00000895,-0.00000761,-0.00000043,-0.00007156,0.0000
 2934,-0.00000099,0.00006150,-0.00005214,0.00000747,0.00006182,-0.00002
 044,0.00001621,-0.00000196,-0.00000400,0.00000103,0.00000696,0.0000150
 7,-0.00000275,0.00003195,0.00002143,-0.00002631,-0.00001342,-0.0000183
 7,-0.00001752,-0.00004956,-0.00000306,0.00003690,0.00005121,0.00000909
 ,-0.00003172,-0.00000096,0.00000463,-0.00001345,-0.00000617,0.00000289
 ,0.00002334,-0.00000653,-0.00000025,0.00000873,0.00000879,-0.00000383,
 0.00001247,0.00000393,-0.00007005,0.00001802,0.00004642,0.00010585,-0.
 00000034,0.00001359,0.00010346,-0.00001779,0.00008312,-0.00001520,-0.0
 0001331,-0.00004202,0.00002823,-0.00000429,-0.00012216,0.00006796,-0.0
 0000258,-0.01586199,-0.06308435,0.06547064,-0.00665508,-0.00936127,0.0
 2878842,0.00299018,-0.00344245,-0.00315114,-0.00023147,0.00074470,0.00
 006828,-0.00024124,-0.00265490,0.00279953,0.00001338,0.00000089,-0.000
 00568,0.00000352,0.00000348,-0.00000087,-0.00000767,0.00000465,-0.0000
 0099,-0.00007876,-0.00003588,0.00000101,-0.00000480,-0.00000003,-0.000
 00374,-0.00000342,-0.00000355,-0.00000162,0.00000129,0.00000081,-0.000
 00006,0.00000353,0.00000101,0.00000135,0.00000346,-0.00000510,0.000008
 85,-0.00002106,0.00000362,0.00001412,-0.00000152,-0.00000251,0.0000020
 7,-0.00000432,0.00000098,-0.00000550,-0.00001339,-0.00000095,0.0000030
 0,-0.00000020,-0.00000472,-0.00000018,-0.00002275,-0.00000667,0.000008
 93,-0.00000109,0.00000826,0.00000108,-0.00000694,0.00000252,0.00000019
 ,-0.00000438,0.00000527,-0.00000156,-0.00034561,-0.00110533,-0.0007086
 9,0.00574730,0.00629734,-0.01778609,-0.00078882,0.00085129,-0.00040232
 ,0.00008422,0.00129789,-0.00030202,0.00000092,-0.00000004,-0.00000208,
 0.00000066,-0.00000109,0.00000389,0.00000040,-0.00000130,-0.00000327,-
 0.00000011,0.00000167,0.00000326,0.00000258,-0.00000277,0.00000266,0.0
 0000175,-0.00000242,-0.00000085,0.00000040,-0.00000066,-0.00000111,0.0
 0002170,0.00000672,-0.00000580,-0.00000020,0.00000879,-0.00000537,0.00
 000014,0.00000806,-0.00000129,-0.00000403,-0.00000049,-0.00000082,0.00
 000378,0.,0.00000064,0.00000523,-0.00000351,-0.00000232,-0.00000050,0.
 00000213,-0.00000240,-0.00003073,-0.00000188,0.00003172,0.00000419,0.0
 0000455,-0.00000919,-0.00000472,-0.00004283,-0.00004546,0.00002395,-0.
 00001241,-0.00002857,0.00002808,-0.00005274,0.00009095,0.00001087,-0.0
 0000303,-0.00000536,-0.00002711,0.00000670,0.00001455,0.00001506,-0.00
 000355,-0.00000568,0.00000390,0.00002253,0.00002625,0.00000386,0.00001
 466,0.00001604,-0.00001098,0.00002007,-0.00000084,0.00000041,0.0000012
 4,0.00000685,0.00000518,0.00000707,-0.00000374,0.01521384,0.07016471,-
 0.00003370,-0.00010849,0.00002248,0.00001161,-0.00030854,0.00038943,-0
 .00025044,-0.00011617,0.00086198,0.00013903,-0.00006641,0.00020477,-0.
 00010555,-0.00005267,0.00007429,0.00003251,0.00004028,-0.00012321,0.00
 000801,0.00003308,0.00005549,0.00003013,0.00008760,-0.00007564,0.00001
 547,0.00004802,-0.00018508,-0.00007948,0.00001000,-0.00008693,-0.00000
 575,-0.00000060,-0.00000343,0.00000397,-0.00000135,0.00000005,0.000011
 79,0.00000643,0.00000479,0.00001556,-0.00000664,-0.00000257,-0.0001008
 4,0.00001709,-0.00000618,0.00005442,0.00001678,0.00000721,0.00009562,-
 0.00000997,0.00001591,0.00000373,-0.00000021,-0.00000004,0.00001502,-0
 .00000662,-0.00000833,-0.00006782,-0.00001313,0.00007645,0.00002318,0.
 00001202,-0.00004741,0.00003934,0.00003685,-0.00012939,-0.00000036,-0.
 00000293,0.00000018,0.00000360,0.00000161,0.00000060,0.00000986,0.0000
 0895,-0.00000118,0.00000670,-0.00000823,0.00000233,0.00000079,0.000006
 59,0.00000231,-0.00005876,0.00000795,-0.00000765,-0.00000912,-0.000024
 11,0.00000539,0.00004867,0.00001447,-0.00000374,-0.00005584,0.00002406
 ,-0.00001971,-0.00001965,0.00000296,-0.00000378,0.00000981,-0.00001196
 ,0.00000304,-0.00000671,-0.00000122,-0.00000376,-0.00000036,0.00001422
 ,-0.00000735,-0.00001384,0.00000997,0.00000171,0.00008916,-0.00004327,
 -0.00001074,-0.00008371,0.00005534,-0.00001434,-0.00008478,0.00001600,
 0.00001234,0.00000775,0.00001626,-0.00001284,0.00002387,-0.00000505,-0
 .00001494,-0.00006633,-0.00003994,0.00006660,0.00003590,0.00005264,0.0
 0002374,0.00009000,-0.00000286,-0.00007633,-0.00014375,-0.00001355,0.0
 0003318,-0.00000789,-0.00002433,-0.00002233,-0.00000886,-0.00000546,0.
 00001221,-0.00000558,0.00001603,0.00001470,-0.00000850,-0.00001462,-0.
 00001763,0.00017899,0.00005356,0.00018106,-0.00011516,-0.00008016,-0.0
 0018519,-0.00009265,0.00000327,-0.00007123,-0.00023957,-0.00003839,0.0
 0009307,0.00009025,0.00005746,-0.00006169,0.00018829,-0.00000360,-0.00
 009366,0.05011743,0.06637576,-0.25828707,0.00100291,-0.00031739,-0.004
 01390,0.00010091,-0.00122769,0.00100733,-0.00015816,0.00135118,-0.0006
 9524,-0.00013867,0.00142096,-0.00065344,-0.00002360,-0.00000214,0.0000
 0674,-0.00000528,-0.00000321,0.00000019,0.00001210,-0.00000740,0.00000
 139,0.00011461,0.00000961,0.00000142,0.00000283,0.00000028,0.00000474,
 0.00000469,0.00000489,0.00000053,-0.00000122,-0.00000265,-0.00000228,-
 0.00001220,-0.00000567,0.00000138,0.00000704,0.00000419,0.00000167,0.0
 0002137,-0.00000814,-0.00000798,0.00000707,0.00000034,-0.00000210,0.00
 000619,-0.00000173,0.00000677,0.00002301,0.00000033,-0.00000247,0.0000
 0043,0.00000692,0.00000033,0.00002765,-0.00001137,-0.00000454,-0.00001
 149,0.00000266,0.00000522,0.00000613,0.00000126,0.00000278,0.00000583,
 -0.00000303,-0.00000723,0.00039075,0.00016874,-0.00303622,0.00507835,0
 .00623078,-0.01732722,0.00006753,0.00042795,0.00050727,-0.00043609,0.0
 0007640,0.00009635,-0.00000198,0.00000078,0.00000318,-0.00000097,0.000
 00268,-0.00000539,-0.00000004,0.00000219,0.00000560,-0.00000044,-0.000
 00284,-0.00000436,-0.00000412,0.00000458,-0.00000474,-0.00000272,0.000
 00421,0.00000130,-0.00000121,0.00000151,0.00000193,0.00002795,0.000025
 14,0.00000047,-0.00000040,-0.00000541,-0.00000433,-0.00001048,-0.00000
 517,-0.00000066,0.00000530,0.00000009,0.00000153,-0.00000491,0.0000002
 8,-0.00000236,-0.00000573,0.00000301,0.00000368,0.00000191,-0.00000276
 ,0.00000200,0.00003551,0.00001360,-0.00004156,-0.00000582,-0.00000934,
 0.00001314,0.00001430,0.00007853,0.00005295,-0.00002838,0.00001232,0.0
 0003288,0.00001260,0.00007076,-0.00009568,-0.00001839,-0.00000862,0.00
 002919,0.00003658,0.00000315,-0.00003823,-0.00001620,0.00000285,0.0000
 1228,-0.00000042,-0.00004249,-0.00002562,-0.00001242,-0.00002083,-0.00
 001660,0.00000120,-0.00000893,0.00000024,-0.00000038,-0.00000199,-0.00
 001158,-0.00001877,-0.00001786,0.00001653,-0.05582971,-0.07425031,0.28
 160075\\0.00049668,-0.00131105,-0.00082428,0.00367258,0.00235784,-0.00
 997756,-0.00893348,-0.00367207,-0.00163379,-0.00516193,0.00536306,-0.0
 0572300,-0.00073399,0.00497341,-0.00133908,-0.00022016,-0.01203746,-0.
 00611483,-0.00006585,-0.00251785,0.01257411,-0.00823480,0.01495823,0.0
 0790220,0.00619376,-0.00343324,-0.00069573,0.00489027,-0.00297870,0.00
 840539,-0.00005415,-0.00000985,-0.00006972,0.00000836,-0.00005573,-0.0
 0002573,0.00011165,0.00003407,0.00002640,0.00022038,-0.00027793,-0.000
 32879,-0.00279485,0.00441056,0.00184983,0.00033855,-0.00310727,-0.0013
 0438,0.00303113,-0.00224624,0.00054955,0.00001369,0.00003049,0.0000032
 7,0.00012389,0.00004039,-0.00006501,-0.00091926,-0.00023597,-0.0001529
 6,0.00040570,-0.00046453,0.00037670,0.00058010,0.00043581,-0.00175995,
 -0.00001414,-0.00000355,0.00000150,-0.00000527,-0.00000613,-0.00000315
 ,0.00007681,0.00015255,0.00002965,0.00000134,0.00003973,0.00003188,0.0
 0000502,-0.00007996,0.00000118,-0.00029145,-0.00003862,0.00001406,0.00
 011927,-0.00000001,-0.00004694,-0.00008605,0.00026253,-0.00014168,-0.0
 0091008,-0.00012259,0.00001107,-0.00001168,-0.00004986,-0.00004364,-0.
 00009075,-0.00020130,0.00006649,-0.00007280,0.00004266,-0.00001585,-0.
 00032249,0.00029532,0.00002269,-0.00053961,-0.00161103,0.00037180,0.00
 489805,0.01153758,-0.00294660,0.01024352,-0.01013556,0.00144996,-0.006
 90732,-0.00324825,0.00193554,-0.00000848,-0.00000169,-0.00000178,-0.00
 001089,-0.00005674,0.00000418,0.00019333,-0.00003552,-0.00011778,-0.00
 006558,-0.00011347,-0.00000287,-0.00006665,0.00013121,0.00017824,0.000
 35539,0.00011320,-0.00023633,0.00006108,0.00006991,0.00004101,-0.00005
 488,-0.00010018,0.00001521,0.00002243,-0.00010253,-0.00002162,0.000124
 41,-0.00016830,0.00042153,-0.00320509,0.00055963,-0.00345629,0.0020761
 2,0.00128224,0.00172194,0.00161928,-0.00186337,0.00178201,0.00454489,0
 .00244858,-0.00331340,-0.00131946,-0.00275552,0.00245622,-0.00304639,0
 .00181804,0.00167613,-0.00000496,0.00001248,-0.00007268,0.00017144,0.0
 0026312,0.00025418,-0.00186498,0.00318960,0.00145781,-0.00003915,-0.00
 153566,-0.00119258,0.00193164,-0.00049695,-0.00304075,-0.00005893,-0.0
 0010817,0.00002794,-0.00005664,-0.00008093,-0.00000327,0.00001629,-0.0
 0001032,0.00000131,-0.00045331,-0.00009087,0.00053876,0.00015001,0.000
 01838,0.00009509,0.00019398,0.00006859,0.00001857,-0.00000950,0.000003
 17,-0.00000136,0.00003412,0.00000148,0.00000329,-0.00007850,0.00000977
 ,-0.00002095,-0.00000210,0.00002617,-0.00001195,-0.00009819,0.00005041
 ,-0.00001428,0.00008014,0.00001832,0.00013037,0.00000091,0.00005151,-0
 .00000369,0.00004352,-0.00000374,0.00000829,-0.00038938,-0.00027533,0.
 00011827,0.00009048,-0.00003225,-0.00000056,-0.00023490,0.00005981,-0.
 00003220,-0.00016343,0.00014560,0.00005226,0.00002937,-0.00001335,0.00
 006394,-0.00003347,-0.00005889,0.00002015,-0.00004223,-0.00010237,0.00
 001628,0.00002848,0.00001677,-0.00008610,0.00001291,-0.00001379,0.0000
 1581,-0.00000719,-0.00000924,-0.00002686,-0.00001895,-0.00000188,0.000
 00660,0.00002481,-0.00001699,-0.00006577,0.00000654,0.00000284,0.00000
 668,0.00000390,0.00000263,0.00000743,0.00001767,-0.00003309,-0.0000064
 1,-0.00003205,-0.00003489,-0.00001155,0.00002209,0.00011478,0.00005468
 ,0.00011856,0.00013105,0.00003404,-0.00012012,-0.00001863,-0.00007357,
 0.00025945,-0.00024778,0.00004064,0.00019264,-0.00022910,0.00000938,-0
 .00005891,0.00002078,0.00005785,0.00064255,-0.00087415,-0.00071448,-0.
 00005745,0.00022088,0.00016591,-0.00007172,0.00123340,0.00076032,-0.00
 063661,0.00075868,0.00085143,-0.00083662,0.00153807,-0.00169027,0.0001
 4403,0.00051694,-0.00073557,0.00013967,-0.00062707,0.00042108,-0.00020
 573,0.00012886,-0.00011376,-0.00000603,-0.00085291,0.00000925,-0.00024
 858,-0.00038293,-0.00033049,0.00116334,-0.00082500,-0.00045432,-0.0000
 0102,-0.00000152,-0.00001626,0.00000420,0.00001736,-0.00000269,0.00002
 777,0.00004139,-0.00008226\\\@


 WE LEARN WISDOM FROM FAILURE MUCH MORE THAN FROM SUCCESS.
 WE DISCOVER WHAT WILL DO BY FINDING OUT WHAT WILL NOT DO...
 AND HE WHO NEVER MADE A MISTAKE NEVER MADE A DISCOVERY
 Job cpu time:      13 days  3 hours 38 minutes 27.4 seconds.
 File lengths (MBytes):  RWF=  81114 Int=      0 D2E=      0 Chk=    380 Scr=      4
 Normal termination of Gaussian 09 at Thu Dec 10 13:41:11 2020.
real 142136.34
user 1135603.97
sys 703.46
Machine:
halstead-a055
halstead-a055
halstead-a055
halstead-a055
halstead-a055
halstead-a055
halstead-a055
halstead-a055
halstead-a055
halstead-a055
halstead-a055
halstead-a055
halstead-a055
halstead-a055
halstead-a055
halstead-a055
halstead-a055
halstead-a055
halstead-a055
halstead-a055
