 Entering Gaussian System, Link 0=/apps/rhel6/g09-E.01/g09/g09
 Initial command:
 /apps/rhel6/g09-E.01/g09/l1.exe "/scratch/halstead/y/ypushkar/gaussian/Gau-37214.inp" -scrdir="/scratch/halstead/y/ypushkar/gaussian/"
 Entering Link 1 = /apps/rhel6/g09-E.01/g09/l1.exe PID=     37215.
  
 Copyright (c) 1988,1990,1992,1993,1995,1998,2003,2009,2015,
            Gaussian, Inc.  All Rights Reserved.
  
 This is part of the Gaussian(R) 09 program.  It is based on
 the Gaussian(R) 03 system (copyright 2003, Gaussian, Inc.),
 the Gaussian(R) 98 system (copyright 1998, Gaussian, Inc.),
 the Gaussian(R) 94 system (copyright 1995, Gaussian, Inc.),
 the Gaussian 92(TM) system (copyright 1992, Gaussian, Inc.),
 the Gaussian 90(TM) system (copyright 1990, Gaussian, Inc.),
 the Gaussian 88(TM) system (copyright 1988, Gaussian, Inc.),
 the Gaussian 86(TM) system (copyright 1986, Carnegie Mellon
 University), and the Gaussian 82(TM) system (copyright 1983,
 Carnegie Mellon University). Gaussian is a federally registered
 trademark of Gaussian, Inc.
  
 This software contains proprietary and confidential information,
 including trade secrets, belonging to Gaussian, Inc.
  
 This software is provided under written license and may be
 used, copied, transmitted, or stored only in accord with that
 written license.
  
 The following legend is applicable only to US Government
 contracts under FAR:
  
                    RESTRICTED RIGHTS LEGEND
  
 Use, reproduction and disclosure by the US Government is
 subject to restrictions as set forth in subparagraphs (a)
 and (c) of the Commercial Computer Software - Restricted
 Rights clause in FAR 52.227-19.
  
 Gaussian, Inc.
 340 Quinnipiac St., Bldg. 40, Wallingford CT 06492
  
  
 ---------------------------------------------------------------
 Warning -- This program may not be used in any manner that
 competes with the business of Gaussian, Inc. or will provide
 assistance to any competitor of Gaussian, Inc.  The licensee
 of this program is prohibited from giving any competitor of
 Gaussian, Inc. access to this program.  By using this program,
 the user acknowledges that Gaussian, Inc. is engaged in the
 business of creating and licensing software in the field of
 computational chemistry and represents and warrants to the
 licensee that it is not a competitor of Gaussian, Inc. and that
 it will not use this program in any manner prohibited above.
 ---------------------------------------------------------------
  

 Cite this work as:
 Gaussian 09, Revision E.01,
 M. J. Frisch, G. W. Trucks, H. B. Schlegel, G. E. Scuseria, 
 M. A. Robb, J. R. Cheeseman, G. Scalmani, V. Barone, B. Mennucci, 
 G. A. Petersson, H. Nakatsuji, M. Caricato, X. Li, H. P. Hratchian, 
 A. F. Izmaylov, J. Bloino, G. Zheng, J. L. Sonnenberg, M. Hada, 
 M. Ehara, K. Toyota, R. Fukuda, J. Hasegawa, M. Ishida, T. Nakajima, 
 Y. Honda, O. Kitao, H. Nakai, T. Vreven, J. A. Montgomery, Jr., 
 J. E. Peralta, F. Ogliaro, M. Bearpark, J. J. Heyd, E. Brothers, 
 K. N. Kudin, V. N. Staroverov, T. Keith, R. Kobayashi, J. Normand, 
 K. Raghavachari, A. Rendell, J. C. Burant, S. S. Iyengar, J. Tomasi, 
 M. Cossi, N. Rega, J. M. Millam, M. Klene, J. E. Knox, J. B. Cross, 
 V. Bakken, C. Adamo, J. Jaramillo, R. Gomperts, R. E. Stratmann, 
 O. Yazyev, A. J. Austin, R. Cammi, C. Pomelli, J. W. Ochterski, 
 R. L. Martin, K. Morokuma, V. G. Zakrzewski, G. A. Voth, 
 P. Salvador, J. J. Dannenberg, S. Dapprich, A. D. Daniels, 
 O. Farkas, J. B. Foresman, J. V. Ortiz, J. Cioslowski, 
 and D. J. Fox, Gaussian, Inc., Wallingford CT, 2013.
 
 ******************************************
 Gaussian 09:  ES64L-G09RevE.01 30-Nov-2015
                 9-Dec-2020 
 ******************************************
 %chk=OEC_Shen_spin7_charge_minus1_freq_18O40.chk
 %mem=50GB
 %nprocshared=20
 Will use up to   20 processors via shared memory.
 ----------------------------
 # freq(Raman) def2tzvp ubp86
 ----------------------------
 1/10=4,30=1,38=1/1,3;
 2/12=2,17=6,18=5,40=1/2;
 3/5=44,7=101,11=2,16=1,25=1,30=1,71=2,74=404,116=2,140=1/1,2,3;
 4//1;
 5/5=2,38=5,98=1/2;
 8/6=4,10=90,11=11/1;
 10/13=10,15=4/2;
 11/6=3,8=1,9=11,15=111,16=1/1,2,10;
 10/6=1/2;
 6/7=2,8=2,9=2,10=2,18=1,28=1/1;
 7/8=1,10=1,25=1/1,2,3,16;
 1/10=4,30=1/3;
 99//99;
 -------------------
 Title Card Required
 -------------------
 Symbolic Z-matrix:
 Charge = -1 Multiplicity = 7
 C                    -5.98097  -1.8474   -1.4136 
 C                    -4.60867  -1.95302  -0.74013 
 O                    -4.40135  -1.29096   0.29602 
 O                    -3.75628  -2.73379  -1.31408 
 C                    -0.77918   2.02822   5.56604 
 C                    -0.90251   1.49748   4.12983 
 O                    -1.97752   1.00612   3.7381 
 O                     0.19951   1.63779   3.45322 
 C                     5.80435  -2.98039   1.13289 
 O                     6.35859  -2.04014   0.55126 
 C                     4.41592  -2.65076   3.27322 
 C                     3.76208  -1.43751   2.67917 
 C                     2.43038  -1.09986   2.61083 
 C                     3.52033   0.57024   1.73928 
 N                     2.29843   0.14391   2.03065 
 N                     5.15945  -3.9857    0.47302 
 C                     3.58869  -3.22973  -1.33309 
 C                     2.33477  -3.94266  -0.82705 
 C                     1.03712  -3.15409  -1.01024 
 O                     1.11336  -1.91602  -1.23072 
 O                    -0.02936  -3.85536  -0.88284 
 C                     4.2912    2.88146  -2.82654 
 C                     3.00021   2.79001  -2.33569 
 N                     4.98988   1.72572  -2.52484 
 C                     4.12651   0.95884  -1.86697 
 N                     2.91036   1.55644  -1.72457 
 C                     1.88188   5.02462   0.61979 
 C                     1.14483   3.688     0.51253 
 O                     0.22531   3.60538  -0.37051 
 O                     1.52469   2.76344   1.28734 
 C                    -3.61121   2.91971  -0.1226 
 O                    -3.88311   1.95056   0.61848 
 O                    -2.51267   3.10866  -0.7804 
 Ca                   -2.49771  -0.10996   1.58568 
 O                    -1.14006   1.81716   1.13798 
 O                    -1.90172   0.48925  -1.14149 
 O                     0.48257   0.70514  -0.37466 
 O                    -1.36877  -2.00958  -2.34955 
 O                    -1.30258  -1.71061   0.07404 
 O(Iso=18)            -0.26017  -0.52391   2.03954 
 Mn                    0.41078   0.97827   1.63418 
 Mn                   -0.93156   1.96409  -0.64037 
 Mn                   -0.56041  -0.70258  -1.32253 
 Mn                   -1.82168  -3.07026  -0.91832 
 O                    -2.26282  -4.44788  -2.66224 
 O                    -5.02811   0.24333   2.41891 
 O                    -2.36776  -4.19594   0.52073 
 O                    -2.81927  -2.40161   2.61958 
 C                     0.3098    1.67825  -4.80018 
 C                    -0.05901   1.32227  -3.36305 
 O                    -0.46802   2.25411  -2.604 
 O                     0.10737   0.10195  -3.03347 
 H                    -6.73398  -2.01227  -0.62561 
 H                    -6.08472  -0.78859  -1.70361 
 H                     0.01474   1.44049   6.05729 
 H                    -0.38807   3.05682   5.50445 
 H                     3.69736  -3.48083   3.18463 
 H                     4.57259  -2.5102    4.35804 
 H                     1.53713  -1.64037   2.91112 
 H                     3.75769   1.508     1.24925 
 H                     3.54274  -3.12611  -2.42916 
 H                     3.6118   -2.20781  -0.92943 
 H                     2.20147  -4.92903  -1.2996 
 H                     2.40258  -4.12886   0.25986 
 H                     4.65897  -4.67089   1.03121 
 H                     2.15041   3.46469  -2.36451 
 H                     2.06692   1.17815  -1.2458 
 H                     4.33623  -0.03531  -1.48171 
 H                     2.05479   5.20807   1.69148 
 H                     2.87953   4.86009   0.176 
 H                     0.00845   0.82972  -5.43283 
 H                     1.41309   1.70535  -4.83133 
 H                    -1.77673  -3.74377  -3.16031 
 H                    -3.19126  -4.13128  -2.69964 
 H                    -5.22006  -0.30682   1.62354 
 H                    -4.93757   1.13955   2.02329 
 H                    -3.26442  -4.52989   0.33828 
 H                    -2.5892   -3.06018   1.89539 
 H                    -3.776    -2.51364   2.75103 
 C                     4.92834   4.0081   -3.5791 
 H                     5.81068   4.39656  -3.04467 
 H                     5.27391   3.67938  -4.57288 
 H                     4.22094   4.83804  -3.72027 
 C                    -0.27383   2.99797  -5.30414 
 H                     0.03886   3.83643  -4.66791 
 H                     0.06021   3.19761  -6.33407 
 H                    -1.37322   2.97484  -5.29743 
 C                    -6.22765  -2.76089  -2.61325 
 H                    -6.14823  -3.82216  -2.3345 
 H                    -7.23531  -2.59578  -3.02545 
 H                    -5.49867  -2.56783  -3.41264 
 C                    -2.07839   1.97243   6.36729 
 H                    -2.46012   0.9439    6.42591 
 H                    -1.92198   2.34783   7.39141 
 H                    -2.86229   2.57864   5.89174 
 C                    -4.62841   4.04488  -0.29154 
 H                    -4.42187   4.81587   0.46743 
 H                    -4.53922   4.51147  -1.28083 
 H                    -5.6458    3.66604  -0.13106 
 C                     1.18668   6.21017  -0.04897 
 H                     1.795     7.12279   0.05162 
 H                     1.01884   6.01945  -1.11732 
 H                     0.20347   6.40069   0.40477 
 C                     4.89878  -3.94329  -0.96819 
 H                     4.90236  -4.9802   -1.34231 
 H                     5.74777  -3.41457  -1.4226 
 C                     5.77816  -3.05927   2.65884 
 H                     6.57283  -2.38596   3.00944 
 H                     6.03521  -4.07348   3.00589 
 N                     4.44179  -0.35263   2.12981 
 H                     5.41275  -0.37676   1.81597 
 

 GradGradGradGradGradGradGradGradGradGradGradGradGradGradGradGradGradGrad
 Berny optimization.
 Initialization pass.
 Trust Radius=3.00D-01 FncErr=1.00D-07 GrdErr=1.00D-07
 Number of steps in this run=      2 maximum allowed number of steps=      2.
 GradGradGradGradGradGradGradGradGradGradGradGradGradGradGradGradGradGrad

 Stoichiometry    C28H50CaMn4N5O23(1-,7)
 Framework group  C1[X(C28H50CaMn4N5O23)]
 Deg. of freedom   327
 Full point group                 C1      NOp   1
 Largest Abelian subgroup         C1      NOp   1
 Largest concise Abelian subgroup C1      NOp   1
                         Standard orientation:                         
 ---------------------------------------------------------------------
 Center     Atomic      Atomic             Coordinates (Angstroms)
 Number     Number       Type             X           Y           Z
 ---------------------------------------------------------------------
      1          6           0       -5.980966   -1.847398   -1.413599
      2          6           0       -4.608670   -1.953016   -0.740131
      3          8           0       -4.401353   -1.290959    0.296017
      4          8           0       -3.756284   -2.733791   -1.314078
      5          6           0       -0.779179    2.028220    5.566042
      6          6           0       -0.902510    1.497480    4.129829
      7          8           0       -1.977516    1.006124    3.738101
      8          8           0        0.199508    1.637786    3.453221
      9          6           0        5.804351   -2.980384    1.132885
     10          8           0        6.358589   -2.040139    0.551260
     11          6           0        4.415922   -2.650763    3.273216
     12          6           0        3.762082   -1.437506    2.679166
     13          6           0        2.430384   -1.099860    2.610833
     14          6           0        3.520327    0.570235    1.739275
     15          7           0        2.298432    0.143906    2.030648
     16          7           0        5.159454   -3.985698    0.473015
     17          6           0        3.588688   -3.229726   -1.333093
     18          6           0        2.334768   -3.942658   -0.827052
     19          6           0        1.037118   -3.154091   -1.010244
     20          8           0        1.113364   -1.916015   -1.230716
     21          8           0       -0.029355   -3.855360   -0.882841
     22          6           0        4.291200    2.881457   -2.826542
     23          6           0        3.000211    2.790007   -2.335690
     24          7           0        4.989875    1.725720   -2.524835
     25          6           0        4.126510    0.958840   -1.866971
     26          7           0        2.910362    1.556442   -1.724570
     27          6           0        1.881884    5.024617    0.619794
     28          6           0        1.144828    3.687999    0.512529
     29          8           0        0.225308    3.605379   -0.370507
     30          8           0        1.524691    2.763436    1.287338
     31          6           0       -3.611212    2.919712   -0.122599
     32          8           0       -3.883114    1.950564    0.618477
     33          8           0       -2.512666    3.108657   -0.780399
     34         20           0       -2.497705   -0.109960    1.585684
     35          8           0       -1.140056    1.817159    1.137982
     36          8           0       -1.901721    0.489247   -1.141489
     37          8           0        0.482573    0.705138   -0.374661
     38          8           0       -1.368768   -2.009578   -2.349549
     39          8           0       -1.302576   -1.710606    0.074043
     40          8           0       -0.260171   -0.523909    2.039545
     41         25           0        0.410779    0.978269    1.634181
     42         25           0       -0.931561    1.964089   -0.640373
     43         25           0       -0.560410   -0.702583   -1.322531
     44         25           0       -1.821683   -3.070263   -0.918319
     45          8           0       -2.262821   -4.447878   -2.662236
     46          8           0       -5.028107    0.243325    2.418908
     47          8           0       -2.367759   -4.195941    0.520728
     48          8           0       -2.819267   -2.401608    2.619584
     49          6           0        0.309798    1.678248   -4.800179
     50          6           0       -0.059013    1.322265   -3.363050
     51          8           0       -0.468023    2.254112   -2.603997
     52          8           0        0.107372    0.101946   -3.033471
     53          1           0       -6.733978   -2.012269   -0.625607
     54          1           0       -6.084715   -0.788591   -1.703607
     55          1           0        0.014735    1.440489    6.057285
     56          1           0       -0.388071    3.056825    5.504452
     57          1           0        3.697361   -3.480831    3.184629
     58          1           0        4.572591   -2.510201    4.358043
     59          1           0        1.537129   -1.640365    2.911119
     60          1           0        3.757689    1.507998    1.249250
     61          1           0        3.542741   -3.126110   -2.429158
     62          1           0        3.611800   -2.207812   -0.929431
     63          1           0        2.201474   -4.929031   -1.299595
     64          1           0        2.402584   -4.128863    0.259862
     65          1           0        4.658969   -4.670886    1.031212
     66          1           0        2.150408    3.464687   -2.364511
     67          1           0        2.066923    1.178147   -1.245795
     68          1           0        4.336227   -0.035307   -1.481706
     69          1           0        2.054791    5.208073    1.691479
     70          1           0        2.879526    4.860094    0.176000
     71          1           0        0.008448    0.829720   -5.432834
     72          1           0        1.413085    1.705346   -4.831332
     73          1           0       -1.776726   -3.743765   -3.160308
     74          1           0       -3.191257   -4.131276   -2.699644
     75          1           0       -5.220057   -0.306823    1.623537
     76          1           0       -4.937574    1.139552    2.023285
     77          1           0       -3.264416   -4.529888    0.338280
     78          1           0       -2.589198   -3.060184    1.895389
     79          1           0       -3.776001   -2.513637    2.751031
     80          6           0        4.928339    4.008103   -3.579098
     81          1           0        5.810684    4.396556   -3.044665
     82          1           0        5.273906    3.679380   -4.572881
     83          1           0        4.220937    4.838041   -3.720272
     84          6           0       -0.273832    2.997971   -5.304138
     85          1           0        0.038861    3.836429   -4.667912
     86          1           0        0.060209    3.197609   -6.334069
     87          1           0       -1.373215    2.974835   -5.297429
     88          6           0       -6.227648   -2.760894   -2.613245
     89          1           0       -6.148227   -3.822158   -2.334501
     90          1           0       -7.235305   -2.595778   -3.025452
     91          1           0       -5.498666   -2.567831   -3.412640
     92          6           0       -2.078391    1.972428    6.367288
     93          1           0       -2.460117    0.943895    6.425912
     94          1           0       -1.921984    2.347828    7.391414
     95          1           0       -2.862294    2.578638    5.891740
     96          6           0       -4.628407    4.044880   -0.291535
     97          1           0       -4.421872    4.815865    0.467427
     98          1           0       -4.539222    4.511473   -1.280828
     99          1           0       -5.645802    3.666039   -0.131057
    100          6           0        1.186682    6.210167   -0.048965
    101          1           0        1.794995    7.122791    0.051620
    102          1           0        1.018838    6.019451   -1.117324
    103          1           0        0.203470    6.400689    0.404765
    104          6           0        4.898780   -3.943294   -0.968191
    105          1           0        4.902359   -4.980198   -1.342314
    106          1           0        5.747768   -3.414566   -1.422597
    107          6           0        5.778163   -3.059271    2.658840
    108          1           0        6.572833   -2.385962    3.009445
    109          1           0        6.035213   -4.073474    3.005888
    110          7           0        4.441785   -0.352626    2.129807
    111          1           0        5.412746   -0.376761    1.815969
 ---------------------------------------------------------------------
 Rotational constants (GHZ):      0.0415489      0.0342195      0.0309376
 Standard basis: def2TZVP (5D, 7F)
 There are  2563 symmetry adapted cartesian basis functions of A   symmetry.
 There are  2252 symmetry adapted basis functions of A   symmetry.
  2252 basis functions,  3741 primitive gaussians,  2563 cartesian basis functions
   282 alpha electrons      276 beta electrons
       nuclear repulsion energy     16425.3665410714 Hartrees.
 NAtoms=  111 NActive=  111 NUniq=  111 SFac= 1.00D+00 NAtFMM=   60 NAOKFM=T Big=T
 Integral buffers will be    131072 words long.
 Raffenetti 2 integral format.
 Two-electron integral symmetry is turned on.
 One-electron integrals computed using PRISM.
   1 Symmetry operations used in ECPInt.
 ECPInt:  NShTT=  396495 NPrTT= 1277675 LenC2=  269622 LenP2D=  536585.
 LDataN:  DoStor=T MaxTD1= 6 Len=  172
 NBasis=  2252 RedAO= T EigKep=  3.47D-05  NBF=  2252
 NBsUse=  2252 1.00D-06 EigRej= -1.00D+00 NBFU=  2252
 ExpMin= 2.68D-02 ExpMax= 2.77D+05 ExpMxC= 5.89D+03 IAcc=3 IRadAn=         5 AccDes= 0.00D+00
 Harris functional with IExCor=  404 and IRadAn=       5 diagonalized for initial guess.
 HarFok:  IExCor=  404 AccDes= 0.00D+00 IRadAn=         5 IDoV= 1 UseB2=F ITyADJ=14
 ICtDFT=  3500011 ScaDFX=  1.000000  1.000000  1.000000  1.000000
 FoFCou: FMM=F IPFlag=           0 FMFlag=      100000 FMFlg1=        2001
         NFxFlg=           0 DoJE=T BraDBF=F KetDBF=T FulRan=T
         wScrn=  0.000000 ICntrl=     500 IOpCl=  0 I1Cent=   200000004 NGrid=           0
         NMat0=    1 NMatS0=      1 NMatT0=    0 NMatD0=    1 NMtDS0=    0 NMtDT0=    0
 Petite list used in FoFCou.
 Initial guess <Sx>= 0.0000 <Sy>= 0.0000 <Sz>= 3.0000 <S**2>=12.0000 S= 3.0000
 Requested convergence on RMS density matrix=1.00D-08 within 128 cycles.
 Requested convergence on MAX density matrix=1.00D-06.
 Requested convergence on             energy=1.00D-06.
 No special actions if energy rises.
 EnCoef did     3 forward-backward iterations
 EnCoef did   100 forward-backward iterations
 EnCoef did   100 forward-backward iterations
 EnCoef did   100 forward-backward iterations
 EnCoef did   100 forward-backward iterations
 EnCoef did   100 forward-backward iterations
 EnCoef did   100 forward-backward iterations
 EnCoef did    19 forward-backward iterations
 EnCoef did    11 forward-backward iterations
 EnCoef did   100 forward-backward iterations
 EnCoef did   100 forward-backward iterations
 EnCoef did   100 forward-backward iterations
 EnCoef did   100 forward-backward iterations
 EnCoef did   100 forward-backward iterations
 EnCoef did   100 forward-backward iterations
 EnCoef did   100 forward-backward iterations
 EnCoef did   100 forward-backward iterations
 EnCoef did   100 forward-backward iterations
 Restarting incremental Fock formation.
 EnCoef did   100 forward-backward iterations
 EnCoef did   100 forward-backward iterations
 EnCoef did   100 forward-backward iterations
 EnCoef did   100 forward-backward iterations
 EnCoef did   100 forward-backward iterations
 EnCoef did   100 forward-backward iterations
 EnCoef did    25 forward-backward iterations
 EnCoef did   100 forward-backward iterations
 EnCoef did   100 forward-backward iterations
 EnCoef did    12 forward-backward iterations
 EnCoef did   100 forward-backward iterations
 EnCoef did   100 forward-backward iterations
 EnCoef did    15 forward-backward iterations
 EnCoef did    11 forward-backward iterations
 EnCoef did     5 forward-backward iterations
 EnCoef did   100 forward-backward iterations
 EnCoef did     5 forward-backward iterations
 EnCoef did     3 forward-backward iterations
 Restarting incremental Fock formation.
 EnCoef did     3 forward-backward iterations
 SCF Done:  E(UB-P86) =  -8385.78417520     A.U. after   53 cycles
            NFock= 53  Conv=0.51D-08     -V/T= 2.0028
 <Sx>= 0.0000 <Sy>= 0.0000 <Sz>= 3.0000 <S**2>=14.9847 S= 3.4032
 <L.S>= 0.000000000000E+00
 Annihilation of the first spin contaminant:
 S**2 before annihilation    14.9847,   after    15.2059
 Range of M.O.s used for correlation:     1  2252
 NBasis=  2252 NAE=   282 NBE=   276 NFC=     0 NFV=     0
 NROrb=   2252 NOA=   282 NOB=   276 NVA=  1970 NVB=  1976

 **** Warning!!: The largest alpha MO coefficient is  0.27900646D+02


 **** Warning!!: The smallest alpha delta epsilon is  0.28932000D-01


 **** Warning!!: The largest beta MO coefficient is  0.28052432D+02


 **** Warning!!: The smallest beta delta epsilon is  0.57126724D-01

          Differentiating once with respect to electric field.
                with respect to dipole field.
          Electric field/nuclear overlap derivatives assumed to be zero.
          There are     3 degrees of freedom in the 1st order CPHF.  IDoFFX=0 NUNeed=     3.
      3 vectors produced by pass  0 Test12= 3.67D-11 3.33D-08 XBig12= 3.58D+03 1.21D+01.
 AX will form     3 AO Fock derivatives at one time.
      3 vectors produced by pass  1 Test12= 3.67D-11 3.33D-08 XBig12= 1.41D+04 1.20D+01.
      3 vectors produced by pass  2 Test12= 3.67D-11 3.33D-08 XBig12= 6.96D+04 2.68D+01.
      3 vectors produced by pass  3 Test12= 3.67D-11 3.33D-08 XBig12= 1.71D+05 5.43D+01.
      3 vectors produced by pass  4 Test12= 3.67D-11 3.33D-08 XBig12= 6.03D+05 7.29D+01.
      3 vectors produced by pass  5 Test12= 3.67D-11 3.33D-08 XBig12= 2.95D+06 2.30D+02.
      3 vectors produced by pass  6 Test12= 3.67D-11 3.33D-08 XBig12= 7.30D+06 2.98D+02.
      3 vectors produced by pass  7 Test12= 3.67D-11 3.33D-08 XBig12= 1.70D+07 3.56D+02.
      3 vectors produced by pass  8 Test12= 3.67D-11 3.33D-08 XBig12= 1.44D+07 2.60D+02.
      3 vectors produced by pass  9 Test12= 3.67D-11 3.33D-08 XBig12= 1.35D+07 3.80D+02.
      3 vectors produced by pass 10 Test12= 3.67D-11 3.33D-08 XBig12= 1.20D+07 3.77D+02.
      3 vectors produced by pass 11 Test12= 3.67D-11 3.33D-08 XBig12= 1.24D+07 2.90D+02.
      3 vectors produced by pass 12 Test12= 3.67D-11 3.33D-08 XBig12= 1.35D+07 3.09D+02.
      3 vectors produced by pass 13 Test12= 3.67D-11 3.33D-08 XBig12= 1.18D+07 3.10D+02.
      3 vectors produced by pass 14 Test12= 3.67D-11 3.33D-08 XBig12= 7.67D+06 2.27D+02.
      3 vectors produced by pass 15 Test12= 3.67D-11 3.33D-08 XBig12= 1.01D+07 4.00D+02.
      3 vectors produced by pass 16 Test12= 3.67D-11 3.33D-08 XBig12= 8.05D+06 2.55D+02.
      3 vectors produced by pass 17 Test12= 3.67D-11 3.33D-08 XBig12= 5.74D+06 1.97D+02.
      3 vectors produced by pass 18 Test12= 3.67D-11 3.33D-08 XBig12= 2.55D+06 1.29D+02.
      3 vectors produced by pass 19 Test12= 3.67D-11 3.33D-08 XBig12= 8.76D+05 9.39D+01.
      3 vectors produced by pass 20 Test12= 3.67D-11 3.33D-08 XBig12= 4.29D+05 5.07D+01.
      3 vectors produced by pass 21 Test12= 3.67D-11 3.33D-08 XBig12= 2.08D+05 3.96D+01.
      3 vectors produced by pass 22 Test12= 3.67D-11 3.33D-08 XBig12= 8.07D+04 2.58D+01.
      3 vectors produced by pass 23 Test12= 3.67D-11 3.33D-08 XBig12= 3.57D+04 2.85D+01.
      3 vectors produced by pass 24 Test12= 3.67D-11 3.33D-08 XBig12= 1.86D+04 1.89D+01.
      3 vectors produced by pass 25 Test12= 3.67D-11 3.33D-08 XBig12= 9.30D+03 1.23D+01.
      3 vectors produced by pass 26 Test12= 3.67D-11 3.33D-08 XBig12= 3.35D+03 5.95D+00.
      3 vectors produced by pass 27 Test12= 3.67D-11 3.33D-08 XBig12= 1.93D+03 3.88D+00.
      3 vectors produced by pass 28 Test12= 3.67D-11 3.33D-08 XBig12= 1.00D+03 3.25D+00.
      3 vectors produced by pass 29 Test12= 3.67D-11 3.33D-08 XBig12= 3.80D+02 2.01D+00.
      3 vectors produced by pass 30 Test12= 3.67D-11 3.33D-08 XBig12= 1.06D+02 1.59D+00.
      3 vectors produced by pass 31 Test12= 3.67D-11 3.33D-08 XBig12= 3.26D+01 1.02D+00.
      3 vectors produced by pass 32 Test12= 3.67D-11 3.33D-08 XBig12= 1.18D+01 5.75D-01.
      3 vectors produced by pass 33 Test12= 3.67D-11 3.33D-08 XBig12= 5.12D+00 3.07D-01.
      3 vectors produced by pass 34 Test12= 3.67D-11 3.33D-08 XBig12= 1.46D+00 1.10D-01.
      3 vectors produced by pass 35 Test12= 3.67D-11 3.33D-08 XBig12= 3.60D-01 6.02D-02.
      3 vectors produced by pass 36 Test12= 3.67D-11 3.33D-08 XBig12= 1.03D-01 2.43D-02.
      3 vectors produced by pass 37 Test12= 3.67D-11 3.33D-08 XBig12= 2.52D-02 1.68D-02.
      3 vectors produced by pass 38 Test12= 3.67D-11 3.33D-08 XBig12= 3.71D-03 4.29D-03.
      3 vectors produced by pass 39 Test12= 3.67D-11 3.33D-08 XBig12= 5.89D-04 2.40D-03.
      3 vectors produced by pass 40 Test12= 3.67D-11 3.33D-08 XBig12= 1.35D-04 8.96D-04.
      3 vectors produced by pass 41 Test12= 3.67D-11 3.33D-08 XBig12= 4.18D-05 4.91D-04.
      3 vectors produced by pass 42 Test12= 3.67D-11 3.33D-08 XBig12= 9.21D-06 2.12D-04.
      3 vectors produced by pass 43 Test12= 3.67D-11 3.33D-08 XBig12= 1.39D-06 1.05D-04.
      3 vectors produced by pass 44 Test12= 3.67D-11 3.33D-08 XBig12= 2.71D-07 3.77D-05.
      3 vectors produced by pass 45 Test12= 3.67D-11 3.33D-08 XBig12= 9.26D-08 1.85D-05.
      3 vectors produced by pass 46 Test12= 3.67D-11 3.33D-08 XBig12= 1.97D-08 8.54D-06.
      3 vectors produced by pass 47 Test12= 3.67D-11 3.33D-08 XBig12= 2.64D-09 3.43D-06.
      3 vectors produced by pass 48 Test12= 3.67D-11 3.33D-08 XBig12= 3.01D-10 1.48D-06.
      3 vectors produced by pass 49 Test12= 3.67D-11 3.33D-08 XBig12= 4.43D-11 6.26D-07.
      3 vectors produced by pass 50 Test12= 3.67D-11 3.33D-08 XBig12= 6.83D-12 2.16D-07.
      3 vectors produced by pass 51 Test12= 3.67D-11 3.33D-08 XBig12= 9.58D-13 9.59D-08.
 InvSVY:  IOpt=1 It=  1 EMax= 3.55D-14
 Solved reduced A of dimension   156 with     3 vectors.
 End of Minotr F.D. properties file   721 does not exist.
 End of Minotr F.D. properties file   722 does not exist.
 End of Minotr F.D. properties file   788 does not exist.
 PrsmSu:  requested number of processors reduced to:   6 ShMem   1 Linda.
   1 Symmetry operations used in ECPInt.
 ECPInt:  NShTT=  396495 NPrTT= 1277675 LenC2=  269622 LenP2D=  536585.
 LDataN:  DoStor=T MaxTD1= 7 Len=  274
 Number of processors reduced to   2 by ecpmxn.
 Symmetrizing basis deriv contribution to polar:
 IMax=3 JMax=2 DiffMx= 0.00D+00
 G2DrvN: will do    14 centers at a time, making    8 passes.
 PxScal for G2LodP:  IOpCl= 1 ISclPx=1 IMOff=     1 NMtTot=     4 NTT= 2536878 ScalPx= 6.23D+00
 Calling FoFCou, ICntrl=  3507 FMM=T I1Cent=   0 AccDes= 0.00D+00.
 PxScal for G2LodP:  IOpCl= 1 ISclPx=1 IMOff=     1 NMtTot=     4 NTT= 2536878 ScalPx= 6.23D+00
 Calling FoFCou, ICntrl=  3507 FMM=T I1Cent=   0 AccDes= 0.00D+00.
 PxScal for G2LodP:  IOpCl= 1 ISclPx=1 IMOff=     1 NMtTot=     4 NTT= 2536878 ScalPx= 6.23D+00
 Calling FoFCou, ICntrl=  3507 FMM=T I1Cent=   0 AccDes= 0.00D+00.
 PxScal for G2LodP:  IOpCl= 1 ISclPx=1 IMOff=     1 NMtTot=     4 NTT= 2536878 ScalPx= 6.23D+00
 Calling FoFCou, ICntrl=  3507 FMM=T I1Cent=   0 AccDes= 0.00D+00.
 PxScal for G2LodP:  IOpCl= 1 ISclPx=1 IMOff=     1 NMtTot=     4 NTT= 2536878 ScalPx= 6.23D+00
 Calling FoFCou, ICntrl=  3507 FMM=T I1Cent=   0 AccDes= 0.00D+00.
 PxScal for G2LodP:  IOpCl= 1 ISclPx=1 IMOff=     1 NMtTot=     4 NTT= 2536878 ScalPx= 6.23D+00
 Calling FoFCou, ICntrl=  3507 FMM=T I1Cent=   0 AccDes= 0.00D+00.
 PxScal for G2LodP:  IOpCl= 1 ISclPx=1 IMOff=     1 NMtTot=     4 NTT= 2536878 ScalPx= 6.23D+00
 Calling FoFCou, ICntrl=  3507 FMM=T I1Cent=   0 AccDes= 0.00D+00.
 PxScal for G2LodP:  IOpCl= 1 ISclPx=1 IMOff=     1 NMtTot=     4 NTT= 2536878 ScalPx= 6.23D+00
 Calling FoFCou, ICntrl=  3507 FMM=T I1Cent=   0 AccDes= 0.00D+00.
 End of G2Drv F.D. properties file   721 does not exist.
 End of G2Drv F.D. properties file   722 does not exist.
 End of G2Drv F.D. properties file   788 does not exist.
          IDoAtm=11111111111111111111111111111111111111111111111111
          IDoAtm=11111111111111111111111111111111111111111111111111
          IDoAtm=11111111111
          Differentiating once with respect to electric field.
                with respect to dipole field.
          Differentiating once with respect to nuclear coordinates.
 CalDSu exits because no D1Ps are significant.
          There are   336 degrees of freedom in the 1st order CPHF.  IDoFFX=5 NUNeed=   336.
 Will reuse    3 saved solutions.
    333 vectors produced by pass  0 Test12= 1.10D-12 1.00D-09 XBig12= 7.32D-01 1.88D-01.
 AX will form    42 AO Fock derivatives at one time.
    333 vectors produced by pass  1 Test12= 1.10D-12 1.00D-09 XBig12= 3.66D-01 9.10D-02.
    333 vectors produced by pass  2 Test12= 1.10D-12 1.00D-09 XBig12= 3.15D-03 4.37D-03.
    330 vectors produced by pass  3 Test12= 1.10D-12 1.00D-09 XBig12= 3.26D-05 3.10D-04.
    330 vectors produced by pass  4 Test12= 1.10D-12 1.00D-09 XBig12= 1.68D-07 2.07D-05.
    315 vectors produced by pass  5 Test12= 1.10D-12 1.00D-09 XBig12= 4.96D-10 9.35D-07.
    211 vectors produced by pass  6 Test12= 1.10D-12 1.00D-09 XBig12= 1.23D-12 6.18D-08.
     96 vectors produced by pass  7 Test12= 1.10D-12 1.00D-09 XBig12= 4.19D-14 6.04D-09.
     48 vectors produced by pass  8 Test12= 1.10D-12 1.00D-09 XBig12= 2.87D-14 2.89D-09.
     23 vectors produced by pass  9 Test12= 1.10D-12 1.00D-09 XBig12= 1.50D-14 2.83D-09.
     11 vectors produced by pass 10 Test12= 1.10D-12 1.00D-09 XBig12= 7.57D-15 1.33D-09.
     11 vectors produced by pass 11 Test12= 1.10D-12 1.00D-09 XBig12= 9.99D-15 1.67D-09.
     11 vectors produced by pass 12 Test12= 1.10D-12 1.00D-09 XBig12= 2.09D-14 3.16D-09.
     11 vectors produced by pass 13 Test12= 1.10D-12 1.00D-09 XBig12= 1.74D-14 2.34D-09.
     11 vectors produced by pass 14 Test12= 1.10D-12 1.00D-09 XBig12= 2.20D-14 2.76D-09.
     11 vectors produced by pass 15 Test12= 1.10D-12 1.00D-09 XBig12= 1.59D-14 2.18D-09.
     11 vectors produced by pass 16 Test12= 1.10D-12 1.00D-09 XBig12= 2.74D-14 2.77D-09.
     11 vectors produced by pass 17 Test12= 1.10D-12 1.00D-09 XBig12= 1.83D-14 2.55D-09.
     11 vectors produced by pass 18 Test12= 1.10D-12 1.00D-09 XBig12= 1.93D-14 2.47D-09.
      9 vectors produced by pass 19 Test12= 1.10D-12 1.00D-09 XBig12= 1.42D-14 2.06D-09.
      9 vectors produced by pass 20 Test12= 1.10D-12 1.00D-09 XBig12= 1.53D-14 1.93D-09.
      9 vectors produced by pass 21 Test12= 1.10D-12 1.00D-09 XBig12= 1.59D-14 2.25D-09.
      5 vectors produced by pass 22 Test12= 1.10D-12 1.00D-09 XBig12= 9.43D-15 1.68D-09.
      5 vectors produced by pass 23 Test12= 1.10D-12 1.00D-09 XBig12= 1.75D-14 2.65D-09.
      5 vectors produced by pass 24 Test12= 1.10D-12 1.00D-09 XBig12= 2.38D-14 2.44D-09.
      5 vectors produced by pass 25 Test12= 1.10D-12 1.00D-09 XBig12= 1.30D-14 1.83D-09.
      3 vectors produced by pass 26 Test12= 1.10D-12 1.00D-09 XBig12= 7.03D-15 1.53D-09.
 InvSVY:  IOpt=1 It=  1 EMax= 1.44D-15
 Solved reduced A of dimension  2501 with   336 vectors.
 Isotropic polarizability for W=    0.000000      685.06 Bohr**3.
 End of Minotr F.D. properties file   721 does not exist.
 End of Minotr F.D. properties file   722 does not exist.
 End of Minotr F.D. properties file   788 does not exist.
 Hyperfine terms turned off by default for NAtoms > 100.

 **********************************************************************

            Population analysis using the SCF density.

 **********************************************************************

 Orbital symmetries:
 Alpha Orbitals:
       Occupied  (A) (A) (A) (A) (A) (A) (A) (A) (A) (A) (A) (A)
                 (A) (A) (A) (A) (A) (A) (A) (A) (A) (A) (A) (A)
                 (A) (A) (A) (A) (A) (A) (A) (A) (A) (A) (A) (A)
                 (A) (A) (A) (A) (A) (A) (A) (A) (A) (A) (A) (A)
                 (A) (A) (A) (A) (A) (A) (A) (A) (A) (A) (A) (A)
                 (A) (A) (A) (A) (A) (A) (A) (A) (A) (A) (A) (A)
                 (A) (A) (A) (A) (A) (A) (A) (A) (A) (A) (A) (A)
                 (A) (A) (A) (A) (A) (A) (A) (A) (A) (A) (A) (A)
                 (A) (A) (A) (A) (A) (A) (A) (A) (A) (A) (A) (A)
                 (A) (A) (A) (A) (A) (A) (A) (A) (A) (A) (A) (A)
                 (A) (A) (A) (A) (A) (A) (A) (A) (A) (A) (A) (A)
                 (A) (A) (A) (A) (A) (A) (A) (A) (A) (A) (A) (A)
                 (A) (A) (A) (A) (A) (A) (A) (A) (A) (A) (A) (A)
                 (A) (A) (A) (A) (A) (A) (A) (A) (A) (A) (A) (A)
                 (A) (A) (A) (A) (A) (A) (A) (A) (A) (A) (A) (A)
                 (A) (A) (A) (A) (A) (A) (A) (A) (A) (A) (A) (A)
                 (A) (A) (A) (A) (A) (A) (A) (A) (A) (A) (A) (A)
                 (A) (A) (A) (A) (A) (A) (A) (A) (A) (A) (A) (A)
                 (A) (A) (A) (A) (A) (A) (A) (A) (A) (A) (A) (A)
                 (A) (A) (A) (A) (A) (A) (A) (A) (A) (A) (A) (A)
                 (A) (A) (A) (A) (A) (A) (A) (A) (A) (A) (A) (A)
                 (A) (A) (A) (A) (A) (A) (A) (A) (A) (A) (A) (A)
                 (A) (A) (A) (A) (A) (A) (A) (A) (A) (A) (A) (A)
                 (A) (A) (A) (A) (A) (A)
       Virtual   (A) (A) (A) (A) (A) (A) (A) (A) (A) (A) (A) (A)
                 (A) (A) (A) (A) (A) (A) (A) (A) (A) (A) (A) (A)
                 (A) (A) (A) (A) (A) (A) (A) (A) (A) (A) (A) (A)
                 (A) (A) (A) (A) (A) (A) (A) (A) (A) (A) (A) (A)
                 (A) (A) (A) (A) (A) (A) (A) (A) (A) (A) (A) (A)
                 (A) (A) (A) (A) (A) (A) (A) (A) (A) (A) (A) (A)
                 (A) (A) (A) (A) (A) (A) (A) (A) (A) (A) (A) (A)
                 (A) (A) (A) (A) (A) (A) (A) (A) (A) (A) (A) (A)
                 (A) (A) (A) (A) (A) (A) (A) (A) (A) (A) (A) (A)
                 (A) (A) (A) (A) (A) (A) (A) (A) (A) (A) (A) (A)
                 (A) (A) (A) (A) (A) (A) (A) (A) (A) (A) (A) (A)
                 (A) (A) (A) (A) (A) (A) (A) (A) (A) (A) (A) (A)
                 (A) (A) (A) (A) (A) (A) (A) (A) (A) (A) (A) (A)
                 (A) (A) (A) (A) (A) (A) (A) (A) (A) (A) (A) (A)
                 (A) (A) (A) (A) (A) (A) (A) (A) (A) (A) (A) (A)
                 (A) (A) (A) (A) (A) (A) (A) (A) (A) (A) (A) (A)
                 (A) (A) (A) (A) (A) (A) (A) (A) (A) (A) (A) (A)
                 (A) (A) (A) (A) (A) (A) (A) (A) (A) (A) (A) (A)
                 (A) (A) (A) (A) (A) (A) (A) (A) (A) (A) (A) (A)
                 (A) (A) (A) (A) (A) (A) (A) (A) (A) (A) (A) (A)
                 (A) (A) (A) (A) (A) (A) (A) (A) (A) (A) (A) (A)
                 (A) (A) (A) (A) (A) (A) (A) (A) (A) (A) (A) (A)
                 (A) (A) (A) (A) (A) (A) (A) (A) (A) (A) (A) (A)
                 (A) (A) (A) (A) (A) (A) (A) (A) (A) (A) (A) (A)
                 (A) (A) (A) (A) (A) (A) (A) (A) (A) (A) (A) (A)
                 (A) (A) (A) (A) (A) (A) (A) (A) (A) (A) (A) (A)
                 (A) (A) (A) (A) (A) (A) (A) (A) (A) (A) (A) (A)
                 (A) (A) (A) (A) (A) (A) (A) (A) (A) (A) (A) (A)
                 (A) (A) (A) (A) (A) (A) (A) (A) (A) (A) (A) (A)
                 (A) (A) (A) (A) (A) (A) (A) (A) (A) (A) (A) (A)
                 (A) (A) (A) (A) (A) (A) (A) (A) (A) (A) (A) (A)
                 (A) (A) (A) (A) (A) (A) (A) (A) (A) (A) (A) (A)
                 (A) (A) (A) (A) (A) (A) (A) (A) (A) (A) (A) (A)
                 (A) (A) (A) (A) (A) (A) (A) (A) (A) (A) (A) (A)
                 (A) (A) (A) (A) (A) (A) (A) (A) (A) (A) (A) (A)
                 (A) (A) (A) (A) (A) (A) (A) (A) (A) (A) (A) (A)
                 (A) (A) (A) (A) (A) (A) (A) (A) (A) (A) (A) (A)
                 (A) (A) (A) (A) (A) (A) (A) (A) (A) (A) (A) (A)
                 (A) (A) (A) (A) (A) (A) (A) (A) (A) (A) (A) (A)
                 (A) (A) (A) (A) (A) (A) (A) (A) (A) (A) (A) (A)
                 (A) (A) (A) (A) (A) (A) (A) (A) (A) (A) (A) (A)
                 (A) (A) (A) (A) (A) (A) (A) (A) (A) (A) (A) (A)
                 (A) (A) (A) (A) (A) (A) (A) (A) (A) (A) (A) (A)
                 (A) (A) (A) (A) (A) (A) (A) (A) (A) (A) (A) (A)
                 (A) (A) (A) (A) (A) (A) (A) (A) (A) (A) (A) (A)
                 (A) (A) (A) (A) (A) (A) (A) (A) (A) (A) (A) (A)
                 (A) (A) (A) (A) (A) (A) (A) (A) (A) (A) (A) (A)
                 (A) (A) (A) (A) (A) (A) (A) (A) (A) (A) (A) (A)
                 (A) (A) (A) (A) (A) (A) (A) (A) (A) (A) (A) (A)
                 (A) (A) (A) (A) (A) (A) (A) (A) (A) (A) (A) (A)
                 (A) (A) (A) (A) (A) (A) (A) (A) (A) (A) (A) (A)
                 (A) (A) (A) (A) (A) (A) (A) (A) (A) (A) (A) (A)
                 (A) (A) (A) (A) (A) (A) (A) (A) (A) (A) (A) (A)
                 (A) (A) (A) (A) (A) (A) (A) (A) (A) (A) (A) (A)
                 (A) (A) (A) (A) (A) (A) (A) (A) (A) (A) (A) (A)
                 (A) (A) (A) (A) (A) (A) (A) (A) (A) (A) (A) (A)
                 (A) (A) (A) (A) (A) (A) (A) (A) (A) (A) (A) (A)
                 (A) (A) (A) (A) (A) (A) (A) (A) (A) (A) (A) (A)
                 (A) (A) (A) (A) (A) (A) (A) (A) (A) (A) (A) (A)
                 (A) (A) (A) (A) (A) (A) (A) (A) (A) (A) (A) (A)
                 (A) (A) (A) (A) (A) (A) (A) (A) (A) (A) (A) (A)
                 (A) (A) (A) (A) (A) (A) (A) (A) (A) (A) (A) (A)
                 (A) (A) (A) (A) (A) (A) (A) (A) (A) (A) (A) (A)
                 (A) (A) (A) (A) (A) (A) (A) (A) (A) (A) (A) (A)
                 (A) (A) (A) (A) (A) (A) (A) (A) (A) (A) (A) (A)
                 (A) (A) (A) (A) (A) (A) (A) (A) (A) (A) (A) (A)
                 (A) (A) (A) (A) (A) (A) (A) (A) (A) (A) (A) (A)
                 (A) (A) (A) (A) (A) (A) (A) (A) (A) (A) (A) (A)
                 (A) (A) (A) (A) (A) (A) (A) (A) (A) (A) (A) (A)
                 (A) (A) (A) (A) (A) (A) (A) (A) (A) (A) (A) (A)
                 (A) (A) (A) (A) (A) (A) (A) (A) (A) (A) (A) (A)
                 (A) (A) (A) (A) (A) (A) (A) (A) (A) (A) (A) (A)
                 (A) (A) (A) (A) (A) (A) (A) (A) (A) (A) (A) (A)
                 (A) (A) (A) (A) (A) (A) (A) (A) (A) (A) (A) (A)
                 (A) (A) (A) (A) (A) (A) (A) (A) (A) (A) (A) (A)
                 (A) (A) (A) (A) (A) (A) (A) (A) (A) (A) (A) (A)
                 (A) (A) (A) (A) (A) (A) (A) (A) (A) (A) (A) (A)
                 (A) (A) (A) (A) (A) (A) (A) (A) (A) (A) (A) (A)
                 (A) (A) (A) (A) (A) (A) (A) (A) (A) (A) (A) (A)
                 (A) (A) (A) (A) (A) (A) (A) (A) (A) (A) (A) (A)
                 (A) (A) (A) (A) (A) (A) (A) (A) (A) (A) (A) (A)
                 (A) (A) (A) (A) (A) (A) (A) (A) (A) (A) (A) (A)
                 (A) (A) (A) (A) (A) (A) (A) (A) (A) (A) (A) (A)
                 (A) (A) (A) (A) (A) (A) (A) (A) (A) (A) (A) (A)
                 (A) (A) (A) (A) (A) (A) (A) (A) (A) (A) (A) (A)
                 (A) (A) (A) (A) (A) (A) (A) (A) (A) (A) (A) (A)
                 (A) (A) (A) (A) (A) (A) (A) (A) (A) (A) (A) (A)
                 (A) (A) (A) (A) (A) (A) (A) (A) (A) (A) (A) (A)
                 (A) (A) (A) (A) (A) (A) (A) (A) (A) (A) (A) (A)
                 (A) (A) (A) (A) (A) (A) (A) (A) (A) (A) (A) (A)
                 (A) (A) (A) (A) (A) (A) (A) (A) (A) (A) (A) (A)
                 (A) (A) (A) (A) (A) (A) (A) (A) (A) (A) (A) (A)
                 (A) (A) (A) (A) (A) (A) (A) (A) (A) (A) (A) (A)
                 (A) (A) (A) (A) (A) (A) (A) (A) (A) (A) (A) (A)
                 (A) (A) (A) (A) (A) (A) (A) (A) (A) (A) (A) (A)
                 (A) (A) (A) (A) (A) (A) (A) (A) (A) (A) (A) (A)
                 (A) (A) (A) (A) (A) (A) (A) (A) (A) (A) (A) (A)
                 (A) (A) (A) (A) (A) (A) (A) (A) (A) (A) (A) (A)
                 (A) (A) (A) (A) (A) (A) (A) (A) (A) (A) (A) (A)
                 (A) (A) (A) (A) (A) (A) (A) (A) (A) (A) (A) (A)
                 (A) (A) (A) (A) (A) (A) (A) (A) (A) (A) (A) (A)
                 (A) (A) (A) (A) (A) (A) (A) (A) (A) (A) (A) (A)
                 (A) (A) (A) (A) (A) (A) (A) (A) (A) (A) (A) (A)
                 (A) (A) (A) (A) (A) (A) (A) (A) (A) (A) (A) (A)
                 (A) (A) (A) (A) (A) (A) (A) (A) (A) (A) (A) (A)
                 (A) (A) (A) (A) (A) (A) (A) (A) (A) (A) (A) (A)
                 (A) (A) (A) (A) (A) (A) (A) (A) (A) (A) (A) (A)
                 (A) (A) (A) (A) (A) (A) (A) (A) (A) (A) (A) (A)
                 (A) (A) (A) (A) (A) (A) (A) (A) (A) (A) (A) (A)
                 (A) (A) (A) (A) (A) (A) (A) (A) (A) (A) (A) (A)
                 (A) (A) (A) (A) (A) (A) (A) (A) (A) (A) (A) (A)
                 (A) (A) (A) (A) (A) (A) (A) (A) (A) (A) (A) (A)
                 (A) (A) (A) (A) (A) (A) (A) (A) (A) (A) (A) (A)
                 (A) (A) (A) (A) (A) (A) (A) (A) (A) (A) (A) (A)
                 (A) (A) (A) (A) (A) (A) (A) (A) (A) (A) (A) (A)
                 (A) (A) (A) (A) (A) (A) (A) (A) (A) (A) (A) (A)
                 (A) (A) (A) (A) (A) (A) (A) (A) (A) (A) (A) (A)
                 (A) (A) (A) (A) (A) (A) (A) (A) (A) (A) (A) (A)
                 (A) (A) (A) (A) (A) (A) (A) (A) (A) (A) (A) (A)
                 (A) (A) (A) (A) (A) (A) (A) (A) (A) (A) (A) (A)
                 (A) (A) (A) (A) (A) (A) (A) (A) (A) (A) (A) (A)
                 (A) (A) (A) (A) (A) (A) (A) (A) (A) (A) (A) (A)
                 (A) (A) (A) (A) (A) (A) (A) (A) (A) (A) (A) (A)
                 (A) (A) (A) (A) (A) (A) (A) (A) (A) (A) (A) (A)
                 (A) (A) (A) (A) (A) (A) (A) (A) (A) (A) (A) (A)
                 (A) (A) (A) (A) (A) (A) (A) (A) (A) (A) (A) (A)
                 (A) (A) (A) (A) (A) (A) (A) (A) (A) (A) (A) (A)
                 (A) (A) (A) (A) (A) (A) (A) (A) (A) (A) (A) (A)
                 (A) (A) (A) (A) (A) (A) (A) (A) (A) (A) (A) (A)
                 (A) (A) (A) (A) (A) (A) (A) (A) (A) (A) (A) (A)
                 (A) (A) (A) (A) (A) (A) (A) (A) (A) (A) (A) (A)
                 (A) (A) (A) (A) (A) (A) (A) (A) (A) (A) (A) (A)
                 (A) (A) (A) (A) (A) (A) (A) (A) (A) (A) (A) (A)
                 (A) (A) (A) (A) (A) (A) (A) (A) (A) (A) (A) (A)
                 (A) (A) (A) (A) (A) (A) (A) (A) (A) (A) (A) (A)
                 (A) (A) (A) (A) (A) (A) (A) (A) (A) (A) (A) (A)
                 (A) (A) (A) (A) (A) (A) (A) (A) (A) (A) (A) (A)
                 (A) (A) (A) (A) (A) (A) (A) (A) (A) (A) (A) (A)
                 (A) (A) (A) (A) (A) (A) (A) (A) (A) (A) (A) (A)
                 (A) (A) (A) (A) (A) (A) (A) (A) (A) (A) (A) (A)
                 (A) (A) (A) (A) (A) (A) (A) (A) (A) (A) (A) (A)
                 (A) (A) (A) (A) (A) (A) (A) (A) (A) (A) (A) (A)
                 (A) (A) (A) (A) (A) (A) (A) (A) (A) (A) (A) (A)
                 (A) (A) (A) (A) (A) (A) (A) (A) (A) (A) (A) (A)
                 (A) (A) (A) (A) (A) (A) (A) (A) (A) (A) (A) (A)
                 (A) (A) (A) (A) (A) (A) (A) (A) (A) (A) (A) (A)
                 (A) (A) (A) (A) (A) (A) (A) (A) (A) (A) (A) (A)
                 (A) (A) (A) (A) (A) (A) (A) (A) (A) (A) (A) (A)
                 (A) (A) (A) (A) (A) (A) (A) (A) (A) (A) (A) (A)
                 (A) (A) (A) (A) (A) (A) (A) (A) (A) (A) (A) (A)
                 (A) (A) (A) (A) (A) (A) (A) (A) (A) (A) (A) (A)
                 (A) (A) (A) (A) (A) (A) (A) (A) (A) (A) (A) (A)
                 (A) (A) (A) (A) (A) (A) (A) (A) (A) (A) (A) (A)
                 (A) (A) (A) (A) (A) (A) (A) (A) (A) (A) (A) (A)
                 (A) (A) (A) (A) (A) (A) (A) (A) (A) (A) (A) (A)
                 (A) (A) (A) (A) (A) (A) (A) (A) (A) (A) (A) (A)
                 (A) (A) (A) (A) (A) (A) (A) (A) (A) (A) (A) (A)
                 (A) (A) (A) (A) (A) (A) (A) (A) (A) (A) (A) (A)
                 (A) (A) (A) (A) (A) (A) (A) (A) (A) (A) (A) (A)
                 (A) (A) (A) (A) (A) (A) (A) (A) (A) (A) (A) (A)
                 (A) (A) (A) (A) (A) (A) (A) (A) (A) (A) (A) (A)
                 (A) (A) (A) (A) (A) (A) (A) (A) (A) (A) (A) (A)
                 (A) (A) (A) (A) (A) (A) (A) (A) (A) (A) (A) (A)
                 (A) (A) (A) (A) (A) (A) (A) (A) (A) (A) (A) (A)
                 (A) (A)
 Beta  Orbitals:
       Occupied  (A) (A) (A) (A) (A) (A) (A) (A) (A) (A) (A) (A)
                 (A) (A) (A) (A) (A) (A) (A) (A) (A) (A) (A) (A)
                 (A) (A) (A) (A) (A) (A) (A) (A) (A) (A) (A) (A)
                 (A) (A) (A) (A) (A) (A) (A) (A) (A) (A) (A) (A)
                 (A) (A) (A) (A) (A) (A) (A) (A) (A) (A) (A) (A)
                 (A) (A) (A) (A) (A) (A) (A) (A) (A) (A) (A) (A)
                 (A) (A) (A) (A) (A) (A) (A) (A) (A) (A) (A) (A)
                 (A) (A) (A) (A) (A) (A) (A) (A) (A) (A) (A) (A)
                 (A) (A) (A) (A) (A) (A) (A) (A) (A) (A) (A) (A)
                 (A) (A) (A) (A) (A) (A) (A) (A) (A) (A) (A) (A)
                 (A) (A) (A) (A) (A) (A) (A) (A) (A) (A) (A) (A)
                 (A) (A) (A) (A) (A) (A) (A) (A) (A) (A) (A) (A)
                 (A) (A) (A) (A) (A) (A) (A) (A) (A) (A) (A) (A)
                 (A) (A) (A) (A) (A) (A) (A) (A) (A) (A) (A) (A)
                 (A) (A) (A) (A) (A) (A) (A) (A) (A) (A) (A) (A)
                 (A) (A) (A) (A) (A) (A) (A) (A) (A) (A) (A) (A)
                 (A) (A) (A) (A) (A) (A) (A) (A) (A) (A) (A) (A)
                 (A) (A) (A) (A) (A) (A) (A) (A) (A) (A) (A) (A)
                 (A) (A) (A) (A) (A) (A) (A) (A) (A) (A) (A) (A)
                 (A) (A) (A) (A) (A) (A) (A) (A) (A) (A) (A) (A)
                 (A) (A) (A) (A) (A) (A) (A) (A) (A) (A) (A) (A)
                 (A) (A) (A) (A) (A) (A) (A) (A) (A) (A) (A) (A)
                 (A) (A) (A) (A) (A) (A) (A) (A) (A) (A) (A) (A)
       Virtual   (A) (A) (A) (A) (A) (A) (A) (A) (A) (A) (A) (A)
                 (A) (A) (A) (A) (A) (A) (A) (A) (A) (A) (A) (A)
                 (A) (A) (A) (A) (A) (A) (A) (A) (A) (A) (A) (A)
                 (A) (A) (A) (A) (A) (A) (A) (A) (A) (A) (A) (A)
                 (A) (A) (A) (A) (A) (A) (A) (A) (A) (A) (A) (A)
                 (A) (A) (A) (A) (A) (A) (A) (A) (A) (A) (A) (A)
                 (A) (A) (A) (A) (A) (A) (A) (A) (A) (A) (A) (A)
                 (A) (A) (A) (A) (A) (A) (A) (A) (A) (A) (A) (A)
                 (A) (A) (A) (A) (A) (A) (A) (A) (A) (A) (A) (A)
                 (A) (A) (A) (A) (A) (A) (A) (A) (A) (A) (A) (A)
                 (A) (A) (A) (A) (A) (A) (A) (A) (A) (A) (A) (A)
                 (A) (A) (A) (A) (A) (A) (A) (A) (A) (A) (A) (A)
                 (A) (A) (A) (A) (A) (A) (A) (A) (A) (A) (A) (A)
                 (A) (A) (A) (A) (A) (A) (A) (A) (A) (A) (A) (A)
                 (A) (A) (A) (A) (A) (A) (A) (A) (A) (A) (A) (A)
                 (A) (A) (A) (A) (A) (A) (A) (A) (A) (A) (A) (A)
                 (A) (A) (A) (A) (A) (A) (A) (A) (A) (A) (A) (A)
                 (A) (A) (A) (A) (A) (A) (A) (A) (A) (A) (A) (A)
                 (A) (A) (A) (A) (A) (A) (A) (A) (A) (A) (A) (A)
                 (A) (A) (A) (A) (A) (A) (A) (A) (A) (A) (A) (A)
                 (A) (A) (A) (A) (A) (A) (A) (A) (A) (A) (A) (A)
                 (A) (A) (A) (A) (A) (A) (A) (A) (A) (A) (A) (A)
                 (A) (A) (A) (A) (A) (A) (A) (A) (A) (A) (A) (A)
                 (A) (A) (A) (A) (A) (A) (A) (A) (A) (A) (A) (A)
                 (A) (A) (A) (A) (A) (A) (A) (A) (A) (A) (A) (A)
                 (A) (A) (A) (A) (A) (A) (A) (A) (A) (A) (A) (A)
                 (A) (A) (A) (A) (A) (A) (A) (A) (A) (A) (A) (A)
                 (A) (A) (A) (A) (A) (A) (A) (A) (A) (A) (A) (A)
                 (A) (A) (A) (A) (A) (A) (A) (A) (A) (A) (A) (A)
                 (A) (A) (A) (A) (A) (A) (A) (A) (A) (A) (A) (A)
                 (A) (A) (A) (A) (A) (A) (A) (A) (A) (A) (A) (A)
                 (A) (A) (A) (A) (A) (A) (A) (A) (A) (A) (A) (A)
                 (A) (A) (A) (A) (A) (A) (A) (A) (A) (A) (A) (A)
                 (A) (A) (A) (A) (A) (A) (A) (A) (A) (A) (A) (A)
                 (A) (A) (A) (A) (A) (A) (A) (A) (A) (A) (A) (A)
                 (A) (A) (A) (A) (A) (A) (A) (A) (A) (A) (A) (A)
                 (A) (A) (A) (A) (A) (A) (A) (A) (A) (A) (A) (A)
                 (A) (A) (A) (A) (A) (A) (A) (A) (A) (A) (A) (A)
                 (A) (A) (A) (A) (A) (A) (A) (A) (A) (A) (A) (A)
                 (A) (A) (A) (A) (A) (A) (A) (A) (A) (A) (A) (A)
                 (A) (A) (A) (A) (A) (A) (A) (A) (A) (A) (A) (A)
                 (A) (A) (A) (A) (A) (A) (A) (A) (A) (A) (A) (A)
                 (A) (A) (A) (A) (A) (A) (A) (A) (A) (A) (A) (A)
                 (A) (A) (A) (A) (A) (A) (A) (A) (A) (A) (A) (A)
                 (A) (A) (A) (A) (A) (A) (A) (A) (A) (A) (A) (A)
                 (A) (A) (A) (A) (A) (A) (A) (A) (A) (A) (A) (A)
                 (A) (A) (A) (A) (A) (A) (A) (A) (A) (A) (A) (A)
                 (A) (A) (A) (A) (A) (A) (A) (A) (A) (A) (A) (A)
                 (A) (A) (A) (A) (A) (A) (A) (A) (A) (A) (A) (A)
                 (A) (A) (A) (A) (A) (A) (A) (A) (A) (A) (A) (A)
                 (A) (A) (A) (A) (A) (A) (A) (A) (A) (A) (A) (A)
                 (A) (A) (A) (A) (A) (A) (A) (A) (A) (A) (A) (A)
                 (A) (A) (A) (A) (A) (A) (A) (A) (A) (A) (A) (A)
                 (A) (A) (A) (A) (A) (A) (A) (A) (A) (A) (A) (A)
                 (A) (A) (A) (A) (A) (A) (A) (A) (A) (A) (A) (A)
                 (A) (A) (A) (A) (A) (A) (A) (A) (A) (A) (A) (A)
                 (A) (A) (A) (A) (A) (A) (A) (A) (A) (A) (A) (A)
                 (A) (A) (A) (A) (A) (A) (A) (A) (A) (A) (A) (A)
                 (A) (A) (A) (A) (A) (A) (A) (A) (A) (A) (A) (A)
                 (A) (A) (A) (A) (A) (A) (A) (A) (A) (A) (A) (A)
                 (A) (A) (A) (A) (A) (A) (A) (A) (A) (A) (A) (A)
                 (A) (A) (A) (A) (A) (A) (A) (A) (A) (A) (A) (A)
                 (A) (A) (A) (A) (A) (A) (A) (A) (A) (A) (A) (A)
                 (A) (A) (A) (A) (A) (A) (A) (A) (A) (A) (A) (A)
                 (A) (A) (A) (A) (A) (A) (A) (A) (A) (A) (A) (A)
                 (A) (A) (A) (A) (A) (A) (A) (A) (A) (A) (A) (A)
                 (A) (A) (A) (A) (A) (A) (A) (A) (A) (A) (A) (A)
                 (A) (A) (A) (A) (A) (A) (A) (A) (A) (A) (A) (A)
                 (A) (A) (A) (A) (A) (A) (A) (A) (A) (A) (A) (A)
                 (A) (A) (A) (A) (A) (A) (A) (A) (A) (A) (A) (A)
                 (A) (A) (A) (A) (A) (A) (A) (A) (A) (A) (A) (A)
                 (A) (A) (A) (A) (A) (A) (A) (A) (A) (A) (A) (A)
                 (A) (A) (A) (A) (A) (A) (A) (A) (A) (A) (A) (A)
                 (A) (A) (A) (A) (A) (A) (A) (A) (A) (A) (A) (A)
                 (A) (A) (A) (A) (A) (A) (A) (A) (A) (A) (A) (A)
                 (A) (A) (A) (A) (A) (A) (A) (A) (A) (A) (A) (A)
                 (A) (A) (A) (A) (A) (A) (A) (A) (A) (A) (A) (A)
                 (A) (A) (A) (A) (A) (A) (A) (A) (A) (A) (A) (A)
                 (A) (A) (A) (A) (A) (A) (A) (A) (A) (A) (A) (A)
                 (A) (A) (A) (A) (A) (A) (A) (A) (A) (A) (A) (A)
                 (A) (A) (A) (A) (A) (A) (A) (A) (A) (A) (A) (A)
                 (A) (A) (A) (A) (A) (A) (A) (A) (A) (A) (A) (A)
                 (A) (A) (A) (A) (A) (A) (A) (A) (A) (A) (A) (A)
                 (A) (A) (A) (A) (A) (A) (A) (A) (A) (A) (A) (A)
                 (A) (A) (A) (A) (A) (A) (A) (A) (A) (A) (A) (A)
                 (A) (A) (A) (A) (A) (A) (A) (A) (A) (A) (A) (A)
                 (A) (A) (A) (A) (A) (A) (A) (A) (A) (A) (A) (A)
                 (A) (A) (A) (A) (A) (A) (A) (A) (A) (A) (A) (A)
                 (A) (A) (A) (A) (A) (A) (A) (A) (A) (A) (A) (A)
                 (A) (A) (A) (A) (A) (A) (A) (A) (A) (A) (A) (A)
                 (A) (A) (A) (A) (A) (A) (A) (A) (A) (A) (A) (A)
                 (A) (A) (A) (A) (A) (A) (A) (A) (A) (A) (A) (A)
                 (A) (A) (A) (A) (A) (A) (A) (A) (A) (A) (A) (A)
                 (A) (A) (A) (A) (A) (A) (A) (A) (A) (A) (A) (A)
                 (A) (A) (A) (A) (A) (A) (A) (A) (A) (A) (A) (A)
                 (A) (A) (A) (A) (A) (A) (A) (A) (A) (A) (A) (A)
                 (A) (A) (A) (A) (A) (A) (A) (A) (A) (A) (A) (A)
                 (A) (A) (A) (A) (A) (A) (A) (A) (A) (A) (A) (A)
                 (A) (A) (A) (A) (A) (A) (A) (A) (A) (A) (A) (A)
                 (A) (A) (A) (A) (A) (A) (A) (A) (A) (A) (A) (A)
                 (A) (A) (A) (A) (A) (A) (A) (A) (A) (A) (A) (A)
                 (A) (A) (A) (A) (A) (A) (A) (A) (A) (A) (A) (A)
                 (A) (A) (A) (A) (A) (A) (A) (A) (A) (A) (A) (A)
                 (A) (A) (A) (A) (A) (A) (A) (A) (A) (A) (A) (A)
                 (A) (A) (A) (A) (A) (A) (A) (A) (A) (A) (A) (A)
                 (A) (A) (A) (A) (A) (A) (A) (A) (A) (A) (A) (A)
                 (A) (A) (A) (A) (A) (A) (A) (A) (A) (A) (A) (A)
                 (A) (A) (A) (A) (A) (A) (A) (A) (A) (A) (A) (A)
                 (A) (A) (A) (A) (A) (A) (A) (A) (A) (A) (A) (A)
                 (A) (A) (A) (A) (A) (A) (A) (A) (A) (A) (A) (A)
                 (A) (A) (A) (A) (A) (A) (A) (A) (A) (A) (A) (A)
                 (A) (A) (A) (A) (A) (A) (A) (A) (A) (A) (A) (A)
                 (A) (A) (A) (A) (A) (A) (A) (A) (A) (A) (A) (A)
                 (A) (A) (A) (A) (A) (A) (A) (A) (A) (A) (A) (A)
                 (A) (A) (A) (A) (A) (A) (A) (A) (A) (A) (A) (A)
                 (A) (A) (A) (A) (A) (A) (A) (A) (A) (A) (A) (A)
                 (A) (A) (A) (A) (A) (A) (A) (A) (A) (A) (A) (A)
                 (A) (A) (A) (A) (A) (A) (A) (A) (A) (A) (A) (A)
                 (A) (A) (A) (A) (A) (A) (A) (A) (A) (A) (A) (A)
                 (A) (A) (A) (A) (A) (A) (A) (A) (A) (A) (A) (A)
                 (A) (A) (A) (A) (A) (A) (A) (A) (A) (A) (A) (A)
                 (A) (A) (A) (A) (A) (A) (A) (A) (A) (A) (A) (A)
                 (A) (A) (A) (A) (A) (A) (A) (A) (A) (A) (A) (A)
                 (A) (A) (A) (A) (A) (A) (A) (A) (A) (A) (A) (A)
                 (A) (A) (A) (A) (A) (A) (A) (A) (A) (A) (A) (A)
                 (A) (A) (A) (A) (A) (A) (A) (A) (A) (A) (A) (A)
                 (A) (A) (A) (A) (A) (A) (A) (A) (A) (A) (A) (A)
                 (A) (A) (A) (A) (A) (A) (A) (A) (A) (A) (A) (A)
                 (A) (A) (A) (A) (A) (A) (A) (A) (A) (A) (A) (A)
                 (A) (A) (A) (A) (A) (A) (A) (A) (A) (A) (A) (A)
                 (A) (A) (A) (A) (A) (A) (A) (A) (A) (A) (A) (A)
                 (A) (A) (A) (A) (A) (A) (A) (A) (A) (A) (A) (A)
                 (A) (A) (A) (A) (A) (A) (A) (A) (A) (A) (A) (A)
                 (A) (A) (A) (A) (A) (A) (A) (A) (A) (A) (A) (A)
                 (A) (A) (A) (A) (A) (A) (A) (A) (A) (A) (A) (A)
                 (A) (A) (A) (A) (A) (A) (A) (A) (A) (A) (A) (A)
                 (A) (A) (A) (A) (A) (A) (A) (A) (A) (A) (A) (A)
                 (A) (A) (A) (A) (A) (A) (A) (A) (A) (A) (A) (A)
                 (A) (A) (A) (A) (A) (A) (A) (A) (A) (A) (A) (A)
                 (A) (A) (A) (A) (A) (A) (A) (A) (A) (A) (A) (A)
                 (A) (A) (A) (A) (A) (A) (A) (A) (A) (A) (A) (A)
                 (A) (A) (A) (A) (A) (A) (A) (A) (A) (A) (A) (A)
                 (A) (A) (A) (A) (A) (A) (A) (A) (A) (A) (A) (A)
                 (A) (A) (A) (A) (A) (A) (A) (A) (A) (A) (A) (A)
                 (A) (A) (A) (A) (A) (A) (A) (A) (A) (A) (A) (A)
                 (A) (A) (A) (A) (A) (A) (A) (A) (A) (A) (A) (A)
                 (A) (A) (A) (A) (A) (A) (A) (A) (A) (A) (A) (A)
                 (A) (A) (A) (A) (A) (A) (A) (A) (A) (A) (A) (A)
                 (A) (A) (A) (A) (A) (A) (A) (A) (A) (A) (A) (A)
                 (A) (A) (A) (A) (A) (A) (A) (A) (A) (A) (A) (A)
                 (A) (A) (A) (A) (A) (A) (A) (A) (A) (A) (A) (A)
                 (A) (A) (A) (A) (A) (A) (A) (A) (A) (A) (A) (A)
                 (A) (A) (A) (A) (A) (A) (A) (A) (A) (A) (A) (A)
                 (A) (A) (A) (A) (A) (A) (A) (A) (A) (A) (A) (A)
                 (A) (A) (A) (A) (A) (A) (A) (A) (A) (A) (A) (A)
                 (A) (A) (A) (A) (A) (A) (A) (A) (A) (A) (A) (A)
                 (A) (A) (A) (A) (A) (A) (A) (A) (A) (A) (A) (A)
                 (A) (A) (A) (A) (A) (A) (A) (A) (A) (A) (A) (A)
                 (A) (A) (A) (A) (A) (A) (A) (A) (A) (A) (A) (A)
                 (A) (A) (A) (A) (A) (A) (A) (A) (A) (A) (A) (A)
                 (A) (A) (A) (A) (A) (A) (A) (A) (A) (A) (A) (A)
                 (A) (A) (A) (A) (A) (A) (A) (A) (A) (A) (A) (A)
                 (A) (A) (A) (A) (A) (A) (A) (A) (A) (A) (A) (A)
                 (A) (A) (A) (A) (A) (A) (A) (A) (A) (A) (A) (A)
                 (A) (A) (A) (A) (A) (A) (A) (A)
 The electronic state is 7-A.
 Alpha  occ. eigenvalues -- -234.21070-234.21015-234.20993-234.18444-144.21286
 Alpha  occ. eigenvalues --  -26.84203 -26.84164 -26.81233 -26.79582 -22.99162
 Alpha  occ. eigenvalues --  -22.99121 -22.98991 -22.98988 -22.98907 -22.98883
 Alpha  occ. eigenvalues --  -22.96370 -22.96280 -22.95703 -22.95648 -22.95470
 Alpha  occ. eigenvalues --  -22.95342 -18.71491 -18.69311 -18.69111 -18.68607
 Alpha  occ. eigenvalues --  -18.68465 -18.67606 -18.67575 -18.66992 -18.66788
 Alpha  occ. eigenvalues --  -18.66436 -18.66334 -18.66282 -18.66097 -18.65946
 Alpha  occ. eigenvalues --  -18.65929 -18.65909 -18.65307 -18.64871 -18.64779
 Alpha  occ. eigenvalues --  -18.64620 -18.64286 -18.63719 -18.61145 -14.87302
 Alpha  occ. eigenvalues --  -13.99030 -13.98101 -13.94381 -13.93838 -13.88227
 Alpha  occ. eigenvalues --  -12.07377 -12.07335 -12.07323  -9.94271  -9.93446
 Alpha  occ. eigenvalues --   -9.92863  -9.92133  -9.91324  -9.91169  -9.89809
 Alpha  occ. eigenvalues --   -9.88499  -9.87974  -9.87045  -9.86921  -9.86694
 Alpha  occ. eigenvalues --   -9.84585  -9.84022  -9.83955  -9.83538  -9.83352
 Alpha  occ. eigenvalues --   -9.82557  -9.82154  -9.82088  -9.82080  -9.81758
 Alpha  occ. eigenvalues --   -9.81130  -9.80987  -9.80960  -9.80858  -9.80710
 Alpha  occ. eigenvalues --   -9.79915  -3.00088  -2.99924  -2.96952  -2.89564
 Alpha  occ. eigenvalues --   -1.90566  -1.90406  -1.90160  -1.90089  -1.89968
 Alpha  occ. eigenvalues --   -1.89804  -1.87693  -1.87367  -1.86456  -1.80450
 Alpha  occ. eigenvalues --   -1.79964  -1.79617  -1.48675  -0.90558  -0.89798
 Alpha  occ. eigenvalues --   -0.89719  -0.89398  -0.88364  -0.87514  -0.87097
 Alpha  occ. eigenvalues --   -0.86718  -0.86473  -0.82610  -0.82588  -0.82485
 Alpha  occ. eigenvalues --   -0.82086  -0.81466  -0.81171  -0.80609  -0.80462
 Alpha  occ. eigenvalues --   -0.80136  -0.80083  -0.79703  -0.79281  -0.78305
 Alpha  occ. eigenvalues --   -0.75844  -0.74322  -0.73765  -0.73025  -0.71649
 Alpha  occ. eigenvalues --   -0.71393  -0.70872  -0.69085  -0.68407  -0.67341
 Alpha  occ. eigenvalues --   -0.65729  -0.63263  -0.62029  -0.61670  -0.61609
 Alpha  occ. eigenvalues --   -0.60640  -0.60100  -0.58560  -0.57346  -0.54368
 Alpha  occ. eigenvalues --   -0.53695  -0.51609  -0.50496  -0.50403  -0.49945
 Alpha  occ. eigenvalues --   -0.49202  -0.48897  -0.47681  -0.47079  -0.44730
 Alpha  occ. eigenvalues --   -0.43224  -0.42554  -0.41801  -0.41715  -0.40774
 Alpha  occ. eigenvalues --   -0.40524  -0.40311  -0.39685  -0.39456  -0.39164
 Alpha  occ. eigenvalues --   -0.38132  -0.37824  -0.37562  -0.36993  -0.36668
 Alpha  occ. eigenvalues --   -0.36504  -0.35684  -0.35030  -0.34955  -0.34937
 Alpha  occ. eigenvalues --   -0.34834  -0.34627  -0.34136  -0.34019  -0.33852
 Alpha  occ. eigenvalues --   -0.33596  -0.33459  -0.33069  -0.32723  -0.32421
 Alpha  occ. eigenvalues --   -0.32362  -0.32183  -0.32181  -0.31909  -0.31429
 Alpha  occ. eigenvalues --   -0.31133  -0.31051  -0.30846  -0.30335  -0.30281
 Alpha  occ. eigenvalues --   -0.30194  -0.29992  -0.29736  -0.29373  -0.28978
 Alpha  occ. eigenvalues --   -0.28953  -0.28800  -0.28694  -0.28413  -0.28288
 Alpha  occ. eigenvalues --   -0.28125  -0.27695  -0.27384  -0.27291  -0.27076
 Alpha  occ. eigenvalues --   -0.26870  -0.26728  -0.26618  -0.26355  -0.26182
 Alpha  occ. eigenvalues --   -0.26017  -0.25842  -0.25798  -0.25678  -0.25557
 Alpha  occ. eigenvalues --   -0.25241  -0.25094  -0.24990  -0.24826  -0.24700
 Alpha  occ. eigenvalues --   -0.24541  -0.24319  -0.24111  -0.23905  -0.23802
 Alpha  occ. eigenvalues --   -0.23668  -0.23575  -0.23383  -0.23308  -0.23114
 Alpha  occ. eigenvalues --   -0.22586  -0.22328  -0.22294  -0.21540  -0.21464
 Alpha  occ. eigenvalues --   -0.21232  -0.20957  -0.20490  -0.20224  -0.19909
 Alpha  occ. eigenvalues --   -0.19871  -0.19471  -0.19240  -0.18819  -0.18593
 Alpha  occ. eigenvalues --   -0.18522  -0.18043  -0.17833  -0.17491  -0.17375
 Alpha  occ. eigenvalues --   -0.16903  -0.16755  -0.16713  -0.16479  -0.16402
 Alpha  occ. eigenvalues --   -0.16290  -0.15906  -0.15689  -0.15340  -0.15137
 Alpha  occ. eigenvalues --   -0.15080  -0.14950  -0.14685  -0.14484  -0.14274
 Alpha  occ. eigenvalues --   -0.13971  -0.13876  -0.13746  -0.13643  -0.13224
 Alpha  occ. eigenvalues --   -0.12956  -0.12508  -0.12173  -0.11752  -0.11676
 Alpha  occ. eigenvalues --   -0.11306  -0.10497  -0.10187  -0.09885  -0.08860
 Alpha  occ. eigenvalues --   -0.06171  -0.05750
 Alpha virt. eigenvalues --   -0.02857  -0.02491  -0.02029  -0.01009  -0.00357
 Alpha virt. eigenvalues --   -0.00026   0.00653   0.01260   0.01402   0.02046
 Alpha virt. eigenvalues --    0.03690   0.04203   0.04490   0.04525   0.05669
 Alpha virt. eigenvalues --    0.06046   0.06332   0.06982   0.07188   0.07252
 Alpha virt. eigenvalues --    0.07679   0.08019   0.08541   0.09003   0.09203
 Alpha virt. eigenvalues --    0.09305   0.09668   0.10166   0.10461   0.10616
 Alpha virt. eigenvalues --    0.10968   0.11342   0.11405   0.11770   0.12039
 Alpha virt. eigenvalues --    0.12155   0.12588   0.12980   0.13238   0.13429
 Alpha virt. eigenvalues --    0.13965   0.14275   0.14296   0.14609   0.14769
 Alpha virt. eigenvalues --    0.15106   0.15385   0.15561   0.15747   0.15979
 Alpha virt. eigenvalues --    0.16019   0.16315   0.16560   0.16675   0.16974
 Alpha virt. eigenvalues --    0.17220   0.17386   0.17485   0.17554   0.17811
 Alpha virt. eigenvalues --    0.17929   0.18016   0.18387   0.18414   0.18532
 Alpha virt. eigenvalues --    0.18695   0.18740   0.18841   0.19157   0.19248
 Alpha virt. eigenvalues --    0.19454   0.19515   0.19924   0.19967   0.20212
 Alpha virt. eigenvalues --    0.20288   0.20392   0.20508   0.20627   0.21062
 Alpha virt. eigenvalues --    0.21103   0.21242   0.21433   0.21603   0.21618
 Alpha virt. eigenvalues --    0.21994   0.22410   0.22608   0.22699   0.22817
 Alpha virt. eigenvalues --    0.22923   0.23045   0.23406   0.23433   0.23757
 Alpha virt. eigenvalues --    0.23791   0.24059   0.24366   0.24641   0.24794
 Alpha virt. eigenvalues --    0.24894   0.25000   0.25205   0.25362   0.25636
 Alpha virt. eigenvalues --    0.25866   0.26188   0.26381   0.26602   0.26786
 Alpha virt. eigenvalues --    0.26872   0.27298   0.27450   0.27564   0.27908
 Alpha virt. eigenvalues --    0.28187   0.28315   0.28464   0.28645   0.28907
 Alpha virt. eigenvalues --    0.28989   0.29224   0.29423   0.29510   0.29662
 Alpha virt. eigenvalues --    0.29767   0.29884   0.30204   0.30422   0.30577
 Alpha virt. eigenvalues --    0.30649   0.31064   0.31185   0.31222   0.31631
 Alpha virt. eigenvalues --    0.31858   0.32152   0.32220   0.32623   0.32844
 Alpha virt. eigenvalues --    0.33138   0.33261   0.33421   0.33953   0.34122
 Alpha virt. eigenvalues --    0.34267   0.34591   0.34717   0.35139   0.35221
 Alpha virt. eigenvalues --    0.35464   0.35632   0.35749   0.35931   0.36182
 Alpha virt. eigenvalues --    0.36391   0.36520   0.36773   0.36916   0.36990
 Alpha virt. eigenvalues --    0.37284   0.37418   0.37463   0.37751   0.37930
 Alpha virt. eigenvalues --    0.38329   0.38546   0.38741   0.38900   0.39212
 Alpha virt. eigenvalues --    0.39355   0.39704   0.39914   0.39985   0.40284
 Alpha virt. eigenvalues --    0.40544   0.40616   0.40705   0.41105   0.41375
 Alpha virt. eigenvalues --    0.41560   0.41771   0.41870   0.42122   0.42161
 Alpha virt. eigenvalues --    0.42324   0.42495   0.42559   0.42836   0.42930
 Alpha virt. eigenvalues --    0.43064   0.43307   0.43506   0.43719   0.43835
 Alpha virt. eigenvalues --    0.43905   0.44120   0.44240   0.44308   0.44436
 Alpha virt. eigenvalues --    0.44698   0.44889   0.44905   0.45064   0.45179
 Alpha virt. eigenvalues --    0.45452   0.45488   0.45591   0.45703   0.45806
 Alpha virt. eigenvalues --    0.45914   0.46055   0.46138   0.46289   0.46571
 Alpha virt. eigenvalues --    0.46715   0.46791   0.47029   0.47072   0.47256
 Alpha virt. eigenvalues --    0.47397   0.47445   0.47643   0.47766   0.48077
 Alpha virt. eigenvalues --    0.48257   0.48306   0.48445   0.48468   0.48687
 Alpha virt. eigenvalues --    0.48794   0.48993   0.49028   0.49146   0.49251
 Alpha virt. eigenvalues --    0.49345   0.49471   0.49692   0.49760   0.49958
 Alpha virt. eigenvalues --    0.50103   0.50248   0.50370   0.50543   0.50670
 Alpha virt. eigenvalues --    0.50800   0.51005   0.51097   0.51341   0.51394
 Alpha virt. eigenvalues --    0.51492   0.51591   0.51666   0.51930   0.52026
 Alpha virt. eigenvalues --    0.52308   0.52454   0.52616   0.52787   0.52965
 Alpha virt. eigenvalues --    0.53053   0.53139   0.53246   0.53436   0.53697
 Alpha virt. eigenvalues --    0.53822   0.54007   0.54303   0.54406   0.54572
 Alpha virt. eigenvalues --    0.54631   0.54837   0.55063   0.55127   0.55279
 Alpha virt. eigenvalues --    0.55458   0.55646   0.55768   0.55943   0.56148
 Alpha virt. eigenvalues --    0.56547   0.56680   0.57033   0.57292   0.57340
 Alpha virt. eigenvalues --    0.57520   0.57755   0.57936   0.58224   0.58357
 Alpha virt. eigenvalues --    0.58427   0.58699   0.58939   0.59011   0.59183
 Alpha virt. eigenvalues --    0.59303   0.59622   0.59757   0.59948   0.60123
 Alpha virt. eigenvalues --    0.60467   0.60566   0.60861   0.60893   0.61126
 Alpha virt. eigenvalues --    0.61209   0.61621   0.61967   0.62039   0.62350
 Alpha virt. eigenvalues --    0.62537   0.62639   0.62863   0.63200   0.63332
 Alpha virt. eigenvalues --    0.63907   0.63960   0.64239   0.64642   0.64787
 Alpha virt. eigenvalues --    0.65051   0.65349   0.65724   0.65816   0.66152
 Alpha virt. eigenvalues --    0.66292   0.66660   0.66813   0.67231   0.67591
 Alpha virt. eigenvalues --    0.67996   0.68228   0.68409   0.68638   0.68968
 Alpha virt. eigenvalues --    0.69195   0.69438   0.69792   0.70261   0.70585
 Alpha virt. eigenvalues --    0.70758   0.71394   0.71560   0.71954   0.72101
 Alpha virt. eigenvalues --    0.72145   0.72441   0.72634   0.73153   0.73296
 Alpha virt. eigenvalues --    0.73773   0.73794   0.74284   0.74458   0.75074
 Alpha virt. eigenvalues --    0.75120   0.75250   0.75585   0.76002   0.76207
 Alpha virt. eigenvalues --    0.76398   0.76683   0.76713   0.77038   0.77534
 Alpha virt. eigenvalues --    0.77910   0.78065   0.78596   0.78843   0.79082
 Alpha virt. eigenvalues --    0.79335   0.79453   0.79671   0.79751   0.80071
 Alpha virt. eigenvalues --    0.80367   0.80715   0.81127   0.81252   0.81546
 Alpha virt. eigenvalues --    0.81762   0.81927   0.81999   0.82336   0.82528
 Alpha virt. eigenvalues --    0.82606   0.82989   0.83269   0.83530   0.83685
 Alpha virt. eigenvalues --    0.83892   0.84079   0.84386   0.84766   0.84965
 Alpha virt. eigenvalues --    0.85181   0.85246   0.85747   0.85884   0.86089
 Alpha virt. eigenvalues --    0.86402   0.86894   0.87124   0.87195   0.87324
 Alpha virt. eigenvalues --    0.87502   0.87681   0.87821   0.88158   0.88212
 Alpha virt. eigenvalues --    0.88498   0.88825   0.89092   0.89250   0.89788
 Alpha virt. eigenvalues --    0.89950   0.90357   0.90479   0.90548   0.90968
 Alpha virt. eigenvalues --    0.91082   0.91343   0.91617   0.91910   0.92203
 Alpha virt. eigenvalues --    0.92396   0.92723   0.92906   0.93046   0.93287
 Alpha virt. eigenvalues --    0.93382   0.93629   0.94042   0.94178   0.94462
 Alpha virt. eigenvalues --    0.94793   0.95226   0.95376   0.95614   0.95905
 Alpha virt. eigenvalues --    0.96133   0.96714   0.96820   0.96955   0.97283
 Alpha virt. eigenvalues --    0.97501   0.97782   0.97944   0.98733   0.98805
 Alpha virt. eigenvalues --    0.99097   0.99161   0.99328   0.99782   1.00091
 Alpha virt. eigenvalues --    1.00133   1.00606   1.00688   1.00979   1.01037
 Alpha virt. eigenvalues --    1.01211   1.01766   1.02009   1.02186   1.02344
 Alpha virt. eigenvalues --    1.02738   1.02992   1.03360   1.03669   1.03833
 Alpha virt. eigenvalues --    1.04031   1.04222   1.04437   1.04712   1.04828
 Alpha virt. eigenvalues --    1.05239   1.05552   1.05859   1.06109   1.06281
 Alpha virt. eigenvalues --    1.06471   1.06629   1.07062   1.07497   1.08115
 Alpha virt. eigenvalues --    1.08256   1.08417   1.08588   1.09097   1.09382
 Alpha virt. eigenvalues --    1.09515   1.10058   1.10149   1.10674   1.10957
 Alpha virt. eigenvalues --    1.11004   1.11253   1.11316   1.11734   1.11945
 Alpha virt. eigenvalues --    1.12323   1.12429   1.12650   1.12911   1.13072
 Alpha virt. eigenvalues --    1.13415   1.13874   1.14079   1.14232   1.14495
 Alpha virt. eigenvalues --    1.14629   1.15057   1.15378   1.15457   1.15579
 Alpha virt. eigenvalues --    1.15887   1.16142   1.16410   1.16714   1.16996
 Alpha virt. eigenvalues --    1.17200   1.17326   1.17633   1.17840   1.18140
 Alpha virt. eigenvalues --    1.18250   1.18423   1.18739   1.18838   1.19111
 Alpha virt. eigenvalues --    1.19585   1.19917   1.20015   1.20329   1.20458
 Alpha virt. eigenvalues --    1.20721   1.21082   1.21272   1.21640   1.21753
 Alpha virt. eigenvalues --    1.22068   1.22374   1.22641   1.22965   1.23094
 Alpha virt. eigenvalues --    1.23306   1.23433   1.23863   1.24374   1.24632
 Alpha virt. eigenvalues --    1.24931   1.25107   1.25331   1.25595   1.25743
 Alpha virt. eigenvalues --    1.26215   1.26385   1.26727   1.27066   1.27556
 Alpha virt. eigenvalues --    1.27780   1.28162   1.28264   1.28498   1.28734
 Alpha virt. eigenvalues --    1.29303   1.29476   1.29576   1.29888   1.30231
 Alpha virt. eigenvalues --    1.30745   1.31150   1.31380   1.31703   1.32053
 Alpha virt. eigenvalues --    1.32449   1.32716   1.33412   1.33493   1.34157
 Alpha virt. eigenvalues --    1.34507   1.34714   1.34922   1.35468   1.35982
 Alpha virt. eigenvalues --    1.36212   1.36564   1.36816   1.37399   1.37693
 Alpha virt. eigenvalues --    1.38321   1.38435   1.38966   1.39526   1.40046
 Alpha virt. eigenvalues --    1.40446   1.40790   1.41292   1.41649   1.42089
 Alpha virt. eigenvalues --    1.42342   1.43090   1.43420   1.43541   1.43605
 Alpha virt. eigenvalues --    1.44020   1.44492   1.44733   1.44882   1.45455
 Alpha virt. eigenvalues --    1.45954   1.46315   1.46481   1.47018   1.47220
 Alpha virt. eigenvalues --    1.47675   1.47826   1.48280   1.48622   1.48785
 Alpha virt. eigenvalues --    1.49414   1.49699   1.49981   1.50112   1.50426
 Alpha virt. eigenvalues --    1.50521   1.50960   1.51525   1.51533   1.51791
 Alpha virt. eigenvalues --    1.51916   1.52119   1.52203   1.52775   1.52910
 Alpha virt. eigenvalues --    1.52939   1.53220   1.53714   1.53873   1.54036
 Alpha virt. eigenvalues --    1.54202   1.54290   1.54496   1.54569   1.54731
 Alpha virt. eigenvalues --    1.54807   1.55040   1.55199   1.55535   1.55859
 Alpha virt. eigenvalues --    1.55950   1.56191   1.56332   1.56483   1.56674
 Alpha virt. eigenvalues --    1.56910   1.56995   1.57259   1.57393   1.57565
 Alpha virt. eigenvalues --    1.57718   1.57856   1.58093   1.58168   1.58475
 Alpha virt. eigenvalues --    1.58816   1.58873   1.59073   1.59284   1.59466
 Alpha virt. eigenvalues --    1.59787   1.59924   1.60080   1.60254   1.60562
 Alpha virt. eigenvalues --    1.60740   1.61146   1.61488   1.61731   1.61946
 Alpha virt. eigenvalues --    1.62368   1.62557   1.62681   1.62990   1.63175
 Alpha virt. eigenvalues --    1.63435   1.63818   1.64116   1.64307   1.64499
 Alpha virt. eigenvalues --    1.64582   1.64990   1.65230   1.65552   1.65797
 Alpha virt. eigenvalues --    1.66049   1.66112   1.66412   1.66820   1.66862
 Alpha virt. eigenvalues --    1.67175   1.67541   1.67785   1.67826   1.68259
 Alpha virt. eigenvalues --    1.68433   1.68704   1.68794   1.69279   1.69336
 Alpha virt. eigenvalues --    1.69684   1.69768   1.70467   1.70514   1.70746
 Alpha virt. eigenvalues --    1.70995   1.71229   1.71472   1.71907   1.72134
 Alpha virt. eigenvalues --    1.72848   1.72899   1.73088   1.73398   1.73741
 Alpha virt. eigenvalues --    1.73958   1.74127   1.74663   1.75188   1.75547
 Alpha virt. eigenvalues --    1.75828   1.75877   1.76483   1.76558   1.76927
 Alpha virt. eigenvalues --    1.77017   1.77596   1.77978   1.78201   1.78461
 Alpha virt. eigenvalues --    1.78555   1.79142   1.79468   1.79733   1.80016
 Alpha virt. eigenvalues --    1.80112   1.80250   1.80850   1.81208   1.81347
 Alpha virt. eigenvalues --    1.81685   1.81967   1.82417   1.82579   1.82989
 Alpha virt. eigenvalues --    1.83405   1.83541   1.83923   1.84224   1.84619
 Alpha virt. eigenvalues --    1.84769   1.85150   1.85400   1.85775   1.86102
 Alpha virt. eigenvalues --    1.86358   1.86838   1.87008   1.87241   1.87553
 Alpha virt. eigenvalues --    1.87987   1.88264   1.88496   1.88954   1.89331
 Alpha virt. eigenvalues --    1.89361   1.89579   1.89782   1.90054   1.90452
 Alpha virt. eigenvalues --    1.90893   1.91341   1.91562   1.92052   1.92230
 Alpha virt. eigenvalues --    1.92498   1.92762   1.93011   1.93256   1.93991
 Alpha virt. eigenvalues --    1.94147   1.94203   1.94465   1.94813   1.95134
 Alpha virt. eigenvalues --    1.95579   1.96144   1.96403   1.96678   1.97122
 Alpha virt. eigenvalues --    1.97274   1.97589   1.97926   1.98146   1.98444
 Alpha virt. eigenvalues --    1.98988   1.99227   1.99553   1.99994   2.00498
 Alpha virt. eigenvalues --    2.00618   2.01025   2.01122   2.01283   2.01610
 Alpha virt. eigenvalues --    2.01805   2.02494   2.02881   2.03171   2.03547
 Alpha virt. eigenvalues --    2.03667   2.03912   2.04247   2.04583   2.04991
 Alpha virt. eigenvalues --    2.05370   2.05567   2.05966   2.06194   2.06369
 Alpha virt. eigenvalues --    2.06557   2.07004   2.07119   2.07618   2.07877
 Alpha virt. eigenvalues --    2.08060   2.08138   2.08770   2.09158   2.09179
 Alpha virt. eigenvalues --    2.09414   2.09678   2.10056   2.10484   2.10595
 Alpha virt. eigenvalues --    2.10988   2.11255   2.11605   2.11870   2.12203
 Alpha virt. eigenvalues --    2.12441   2.12661   2.13228   2.13398   2.13972
 Alpha virt. eigenvalues --    2.14135   2.14499   2.14829   2.15151   2.15174
 Alpha virt. eigenvalues --    2.15592   2.15925   2.16605   2.16903   2.17415
 Alpha virt. eigenvalues --    2.17581   2.17786   2.18034   2.18215   2.18396
 Alpha virt. eigenvalues --    2.19425   2.20018   2.20283   2.20502   2.20709
 Alpha virt. eigenvalues --    2.21162   2.21312   2.21587   2.22322   2.22572
 Alpha virt. eigenvalues --    2.22974   2.23043   2.23776   2.24020   2.24144
 Alpha virt. eigenvalues --    2.24518   2.24796   2.25038   2.25362   2.25576
 Alpha virt. eigenvalues --    2.25804   2.26103   2.26435   2.26744   2.27116
 Alpha virt. eigenvalues --    2.27253   2.27441   2.27589   2.27881   2.28533
 Alpha virt. eigenvalues --    2.28891   2.28999   2.29234   2.29406   2.29787
 Alpha virt. eigenvalues --    2.30184   2.30353   2.30537   2.30714   2.30838
 Alpha virt. eigenvalues --    2.31418   2.31597   2.31682   2.31866   2.32486
 Alpha virt. eigenvalues --    2.32727   2.32789   2.33120   2.33354   2.33421
 Alpha virt. eigenvalues --    2.33753   2.34122   2.34203   2.34703   2.35015
 Alpha virt. eigenvalues --    2.35249   2.35498   2.35857   2.36289   2.36386
 Alpha virt. eigenvalues --    2.36619   2.36888   2.36949   2.37494   2.37733
 Alpha virt. eigenvalues --    2.37932   2.38046   2.38736   2.38788   2.39046
 Alpha virt. eigenvalues --    2.39140   2.39975   2.40049   2.40504   2.40662
 Alpha virt. eigenvalues --    2.40922   2.41386   2.41462   2.41716   2.41897
 Alpha virt. eigenvalues --    2.42497   2.42597   2.43093   2.43326   2.43492
 Alpha virt. eigenvalues --    2.43729   2.43961   2.44287   2.44468   2.44740
 Alpha virt. eigenvalues --    2.45107   2.45811   2.46076   2.46373   2.46642
 Alpha virt. eigenvalues --    2.46753   2.47174   2.47488   2.47985   2.48375
 Alpha virt. eigenvalues --    2.48996   2.49279   2.49704   2.50164   2.50400
 Alpha virt. eigenvalues --    2.50785   2.50927   2.51380   2.51683   2.52008
 Alpha virt. eigenvalues --    2.52300   2.52649   2.52999   2.53207   2.53694
 Alpha virt. eigenvalues --    2.53857   2.54049   2.54167   2.54371   2.54632
 Alpha virt. eigenvalues --    2.54778   2.55182   2.55530   2.55936   2.56115
 Alpha virt. eigenvalues --    2.56233   2.56349   2.56804   2.57479   2.57595
 Alpha virt. eigenvalues --    2.57843   2.58098   2.58294   2.58492   2.58695
 Alpha virt. eigenvalues --    2.58896   2.59131   2.59150   2.59485   2.59729
 Alpha virt. eigenvalues --    2.59975   2.60100   2.60266   2.60567   2.60834
 Alpha virt. eigenvalues --    2.61211   2.61425   2.61840   2.61953   2.62405
 Alpha virt. eigenvalues --    2.62758   2.63233   2.63284   2.63352   2.63485
 Alpha virt. eigenvalues --    2.63930   2.64222   2.64451   2.64838   2.65045
 Alpha virt. eigenvalues --    2.65149   2.65247   2.65475   2.66087   2.66373
 Alpha virt. eigenvalues --    2.66651   2.66992   2.67450   2.68086   2.68095
 Alpha virt. eigenvalues --    2.68243   2.68423   2.68614   2.69157   2.69599
 Alpha virt. eigenvalues --    2.69652   2.69990   2.70683   2.71034   2.71483
 Alpha virt. eigenvalues --    2.71575   2.71869   2.72016   2.72226   2.72406
 Alpha virt. eigenvalues --    2.72696   2.73002   2.74133   2.74218   2.74747
[...]
 552838,0.06129486,-0.09012127,-0.01048749,0.00567012,0.01885960,-0.000
 22114,-0.00035309,0.00034542,0.00000570,0.00020780,-0.00001569,0.00004
 960,0.00002457,-0.00004771,0.00011620,0.00000630,-0.00005592,-0.000030
 67,-0.00002112,0.00005390,-0.00008977,-0.00003064,0.00002219,-0.000066
 43,0.00003086,0.00002704,0.00001844,-0.00000521,-0.00000690,0.00004488
 ,0.00004959,-0.00005812,-0.00009909,-0.00011063,0.00003406,0.00007662,
 -0.00000955,-0.00018464,0.00003959,0.00001803,-0.00003421,0.00010797,-
 0.00040461,0.00034519,-0.00007759,0.00005043,-0.00013356,-0.00027227,0
 .00047558,-0.00001872,0.00011919,-0.00000995,-0.00005167,-0.00006496,-
 0.00000492,0.00002012,-0.00013910,0.00004798,0.00002595,0.00013370,0.0
 0009151,-0.00001016,-0.00012884,-0.00006555,-0.00022693,-0.00003292,-0
 .00006703,-0.00003479,-0.00021302,-0.00004164,-0.00022386,-0.00005881,
 -0.00012458,-0.00003368,-0.00001858,-0.00005871,0.00006268,0.00041476,
 -0.00073556,0.00013788,0.00210937,0.00083838,0.00131572,0.00011191,-0.
 00006707,0.00013897,0.00007527,0.00026302,0.00005866,0.00009473,0.0001
 0673,-0.00010325,-0.00002875,-0.00005068,-0.00003196,-0.00004275,-0.00
 001279,0.00001811,-0.00002724,-0.00006114,0.00008710,0.00000501,-0.000
 03438,0.00005140,0.00001504,-0.00000906,-0.00000685,-0.00001825,0.0000
 2994,0.00007392,0.00001714,-0.00001871,-0.00010301,-0.00000783,-0.0000
 1187,-0.00003882,-0.00000440,-0.00000097,0.00000021,-0.00000064,-0.000
 00045,-0.00000187,-0.00000245,-0.00001132,0.00002070,-0.00001333,0.000
 01202,0.00000013,-0.00066150,-0.00048654,-0.00009398,0.00032339,-0.000
 01642,-0.00006671,-0.00016296,0.00126306,0.00323119,-0.01150313,0.0043
 5894,-0.00336951,-0.00001825,-0.00007086,-0.00004084,0.00010470,0.0000
 5609,0.00027418,-0.00003278,-0.00002356,0.00001518,0.00004104,-0.00001
 201,-0.00000295,-0.00013437,0.00003249,-0.00010071,0.00000201,0.000004
 68,0.00000622,0.00004767,0.00002389,0.00008217,0.00000907,0.00001979,0
 .00007945,-0.00002185,0.00002260,0.00001627,-0.00000381,-0.00000170,-0
 .00002446,-0.00000304,0.00000022,-0.00000596,-0.00000073,0.00000295,0.
 00000285,0.00001190,0.00002876,0.00001715,0.00001134,0.00000950,0.0000
 0589,0.00001174,0.00000230,-0.00000798,0.00002390,0.00000854,-0.000013
 79,0.00000649,0.00000920,-0.00000122,-0.00001103,-0.00000544,-0.000044
 08,0.00000112,0.00000646,-0.00001171,-0.00000885,-0.00001146,0.0000091
 9,0.00002207,0.00002283,-0.00000228,0.00000925,0.00000548,-0.00001595,
 -0.00000168,0.00000934,-0.00000233,0.00000132,-0.00000431,0.00000150,0
 .00000015,-0.00000297,0.00000520,0.00000219,0.00000318,-0.00001022,-0.
 00000435,0.00000100,0.00000198,-0.00000032,0.00000234,0.,0.00000320,-0
 .00000189,0.00000011,-0.00000696,0.00000059,-0.00000359,0.00000239,-0.
 00000099,0.00000316,0.00001589,0.00001053,0.00002050,-0.00000415,-0.00
 000100,-0.00000976,-0.00001122,0.00000792,0.00002730,0.00000167,-0.000
 00641,-0.00000519,-0.00001627,0.00001067,0.00000812,-0.00000105,0.0000
 0299,0.00000211,0.00000054,-0.00000007,-0.00000365,-0.00000873,0.00000
 185,-0.00000019,0.00001018,0.00001019,0.00001552,0.00000438,0.00002530
 ,-0.00000502,0.00000081,-0.00001086,0.00000646,-0.00000495,-0.00000323
 ,-0.00000157,-0.00009198,0.00009347,0.00015192,0.00001088,-0.00004005,
 0.00000352,0.00001196,0.00002776,0.00001957,-0.00054200,-0.00117100,0.
 00065624,0.00016112,0.00013320,0.00014420,0.00026173,0.00002006,0.0000
 0354,-0.13971995,-0.17847511,0.21353862,0.00000672,-0.00001034,-0.0000
 0095,-0.00005644,-0.00000218,-0.00003253,0.00004578,0.00002496,0.00003
 553,0.00003889,0.00000091,0.00001088,-0.00001412,0.00000894,-0.0000199
 1,-0.00031075,-0.00004873,0.00019891,0.00018301,0.00005612,-0.00000911
 ,0.00024196,-0.00004682,-0.00015333,0.00304808,0.00438493,-0.00265829,
 -0.00237414,-0.00430960,0.00073482,0.00078717,-0.00072081,-0.00060499,
 -0.00690111,-0.00008599,0.00054510,0.00104402,-0.00100597,0.00171177,-
 0.01345154,-0.00362417,0.00347601,0.00127039,0.00401272,-0.00032519,-0
 .00151574,-0.00203541,-0.00037215,0.00011109,-0.00020363,-0.00012319,-
 0.00007630,0.00014877,-0.00007913,0.00018456,-0.00034704,0.00000487,-0
 .00011437,0.00028816,0.00006027,-0.00015032,0.00009536,-0.00000584,0.0
 0006678,-0.00009251,-0.00000952,-0.00005116,0.00004538,0.00001213,-0.0
 0011307,0.00001417,0.00005130,0.00020052,0.00010728,-0.00001332,-0.000
 17437,0.00005000,0.00014003,-0.00002462,-0.00002361,0.00001051,-0.0001
 6164,0.00037343,-0.00036599,0.00016170,-0.00003681,0.00021804,0.000247
 05,-0.00038125,0.00018656,-0.00011808,0.00001069,0.00005035,0.00005721
 ,0.00000031,-0.00001126,0.00014743,-0.00004787,-0.00001350,-0.00016411
 ,-0.00005387,-0.00006449,0.00015455,-0.00010199,0.00015028,0.00002975,
 0.00009955,0.00005026,0.00022570,-0.00002242,0.00023061,0.00004962,0.0
 0014282,0.00007966,0.00003121,0.00004265,0.00000145,-0.00001101,-0.000
 16937,0.00000241,-0.00052248,0.00035890,-0.00012070,-0.00021967,0.0000
 3455,-0.00024474,-0.00004452,-0.00028210,-0.00019178,-0.00002983,-0.00
 014625,-0.00001400,0.00002640,0.00007919,0.00006390,0.00005153,0.00000
 926,-0.00000593,0.00002140,0.00006472,-0.00002159,0.00002735,0.0000306
 1,-0.00000500,-0.00001534,0.00000449,0.00001041,0.00003344,-0.00004019
 ,-0.00010792,-0.00002315,0.00002802,0.00014075,-0.00001332,0.00000586,
 0.00006949,0.00000323,0.00000166,0.00000074,0.00000025,0.00000132,0.00
 000195,0.00000430,0.00000046,0.00001302,0.00000306,-0.00000180,0.00000
 054,-0.00016459,0.00021400,-0.00000414,-0.00022111,0.00040530,-0.00012
 570,0.00016655,0.00029250,0.00022294,0.00032375,-0.00011392,-0.0008984
 0,-0.00008030,0.00006835,-0.00000580,0.00004233,0.00006400,0.00000179,
 0.00000785,0.00001770,0.00002809,0.00004811,-0.00005614,-0.00000966,-0
 .00019906,-0.00017708,-0.00018070,-0.00000459,-0.00000556,-0.00000658,
 -0.00004920,0.00001922,-0.00011658,0.00006297,-0.00013109,-0.00016011,
 0.00000483,0.00000600,0.00000375,0.00000581,0.00000390,-0.00000234,0.0
 0000698,0.00000064,0.00000772,-0.00000192,-0.00000719,-0.00000153,-0.0
 0000388,-0.00004505,-0.00002956,-0.00000952,-0.00001488,-0.00001426,-0
 .00001432,-0.00000629,-0.00000220,-0.00002365,-0.00000494,0.00000728,-
 0.00000034,-0.00001152,0.00000020,-0.00001116,-0.00001781,-0.00000966,
 -0.00000079,-0.00000342,0.00000810,0.00001393,0.00002030,-0.00001492,-
 0.00002096,-0.00003153,-0.00000251,-0.00000857,-0.00000808,0.00002688,
 -0.00000452,-0.00000485,-0.00000029,-0.00000355,0.00000424,0.00000054,
 0.00000178,0.00000466,-0.00000626,-0.00000184,-0.00000521,0.00001377,0
 .00000241,-0.00000057,-0.00000363,0.00000199,-0.00000269,-0.00000010,-
 0.00000349,0.00000270,-0.00000071,0.00000884,-0.00000035,0.00000474,-0
 .00000374,0.00000067,-0.00000241,-0.00000527,-0.00000565,0.00000254,0.
 00000173,0.00000420,0.00000418,0.00000347,-0.00000593,-0.00002085,0.00
 000910,-0.00000077,0.00000279,0.00001655,-0.00001207,-0.00001081,0.000
 00080,-0.00000214,-0.00000188,-0.00000110,-0.00000042,0.00000446,0.000
 00961,-0.00000153,-0.00000060,-0.00000546,0.00000223,-0.00000645,-0.00
 000551,-0.00002514,0.00000134,0.00000610,0.00000332,0.00000444,0.00000
 679,-0.00000134,0.00000189,0.00010966,-0.00009151,0.00055337,-0.000082
 86,-0.00001789,-0.00006342,0.00001864,0.00009000,0.00009149,0.00067076
 ,-0.00014664,0.00059765,-0.00031317,0.00040802,-0.00029269,-0.00022257
 ,-0.00010861,0.00005228,-0.37256654,0.00961211,0.10970015,0.39062927,0
 .00000247,-0.00000551,-0.00000409,-0.00002662,0.00005914,0.00006125,0.
 00000166,-0.00003385,-0.00004564,0.00008221,-0.00004032,-0.00001646,0.
 00002195,0.00000008,-0.00000487,0.00007035,0.00002058,0.00003140,-0.00
 006042,-0.00003708,-0.00005763,-0.00009452,-0.00000533,-0.00007879,-0.
 00344235,-0.00773264,0.00139893,-0.00003049,0.00481545,0.00021587,-0.0
 0050647,0.00056009,-0.00069361,-0.02394045,0.00823400,0.00103288,-0.00
 370624,-0.00654765,0.00405408,0.01581401,0.00685390,-0.01262169,0.0055
 5847,-0.00136455,0.00373766,0.00149260,0.00199913,0.00080786,-0.000123
 62,-0.00000190,0.00014376,0.00006306,-0.00016909,0.00011117,-0.0004225
 5,0.00023158,-0.00001788,0.00026148,-0.00026300,0.00001195,0.00038329,
 -0.00005240,-0.00000381,-0.00002179,-0.00004998,0.00002708,0.00001813,
 0.00004592,-0.00002704,-0.00012921,-0.00017393,-0.00008125,0.00002342,
 0.00016592,-0.00020469,-0.00005985,-0.00014021,-0.00000616,0.00001425,
 -0.00001718,-0.00001105,0.00022657,-0.00004668,0.00024888,-0.00023731,
 -0.00013198,-0.00017984,-0.00026587,0.00004755,-0.00007456,-0.00001102
 ,0.00002493,-0.00000783,0.00001145,-0.00002290,0.00000701,0.00001428,-
 0.00003089,0.00001436,-0.00000292,0.00003028,0.00006730,0.00015129,-0.
 00018782,0.00005116,0.00002459,-0.00014852,-0.00003530,-0.00007094,-0.
 00012282,0.00002882,0.00000868,-0.00009450,-0.00002464,0.00000072,-0.0
 0005944,0.00000626,0.00000946,0.00020798,-0.00031189,-0.00055589,0.000
 90566,0.00023985,0.00015188,0.00027155,-0.00003303,-0.00012796,0.00034
 452,0.00000326,-0.00019886,0.00011936,0.00001186,0.00001302,-0.0000277
 1,-0.00001530,-0.00000185,-0.00001541,-0.00001497,0.00001730,-0.000026
 79,-0.00002419,-0.00000199,-0.00002405,-0.00002737,0.00000691,-0.00000
 312,0.00000430,0.00000304,0.00012267,-0.00000296,-0.00001663,-0.000073
 81,-0.00000504,-0.00000958,-0.00010200,0.00004834,0.00000310,0.0000005
 2,-0.00000029,0.00000246,-0.00000169,0.00000139,-0.00000018,0.00000873
 ,-0.00001231,0.00000398,-0.00001045,-0.00000063,0.00017026,-0.00006677
 ,-0.00010600,0.00018610,0.00003322,-0.00009467,-0.00053463,0.00090404,
 -0.00000244,-0.00048675,-0.00049509,-0.00025280,0.00011750,0.00000219,
 0.00007648,-0.00006955,0.00010371,-0.00002996,0.00001897,0.00000972,-0
 .00002342,-0.00006690,0.00002291,0.00001843,0.00016150,0.00005171,0.00
 017092,0.00001276,0.00001143,0.00001883,0.00016169,0.00009231,-0.00002
 495,0.00003314,0.00012815,0.00008589,0.00001435,-0.00001869,-0.0000188
 9,-0.00001669,-0.00001977,0.00003551,-0.00000840,-0.00000414,-0.000003
 76,0.00000026,0.00000820,0.00001553,-0.00001417,0.00001983,0.00000240,
 -0.00000421,0.00000412,0.00000425,-0.00000434,0.00001354,0.00001389,0.
 00000145,0.00000483,0.00000485,-0.00000057,0.00000300,0.00000226,-0.00
 000492,0.00002549,0.00003190,-0.00000251,0.00000395,0.00000389,0.00001
 537,-0.00000105,0.00002188,-0.00001229,-0.00001065,0.00000955,0.000003
 94,-0.00000194,-0.00001805,-0.00000719,0.00000591,-0.00000088,-0.00000
 357,0.00000400,0.00000720,0.00000460,-0.00000653,-0.00000250,0.0000019
 5,-0.00000128,0.00000251,-0.00000340,-0.00000066,-0.00000171,-0.000000
 81,0.00000014,-0.00000121,-0.00000173,-0.00000189,0.00000067,0.0000024
 5,-0.00000037,0.00000066,-0.00000087,0.00000154,-0.00000167,-0.0000047
 6,-0.00000307,-0.00001086,-0.00000203,-0.00000363,0.00000278,0.0000037
 0,0.00000040,-0.00000334,-0.00000442,0.00000305,0.00000188,0.00000437,
 -0.00000283,-0.00000231,0.00000264,-0.00000261,-0.00000235,0.00000171,
 0.00000044,0.00000207,0.00000031,-0.00000162,0.00000064,-0.00001742,-0
 .00001425,0.00000192,0.00000254,-0.00000776,0.00000157,0.00000181,0.00
 000690,-0.00000991,-0.00001168,0.00001318,0.00000129,0.00003026,0.0000
 4814,-0.00078479,0.00008846,0.00006958,0.00010833,-0.00003844,-0.00010
 626,-0.00010506,0.00012926,-0.00053170,0.00008855,0.00064754,-0.000307
 63,0.00032884,0.00022570,0.00026604,-0.00013687,0.01574887,-0.05620095
 ,0.01988896,-0.00686167,0.04864507,0.00000215,-0.00000657,-0.00000354,
 -0.00003268,0.00006187,0.00006590,0.00000496,-0.00003462,-0.00005360,0
 .00008307,-0.00003892,-0.00002107,0.00002461,-0.00001203,-0.00000234,0
 .00010651,0.00005970,0.00000716,-0.00009487,-0.00007168,-0.00007178,-0
 .00014902,0.00002932,-0.00005258,-0.00289446,-0.00475971,0.00358080,-0
 .00002846,0.00414235,-0.00330414,-0.00029982,-0.00036411,-0.00104000,0
 .00591568,-0.00690962,-0.00525333,0.00211271,0.00128655,0.00149416,-0.
 01316816,-0.00631794,0.00086348,-0.00401220,0.00564192,0.00172522,0.00
 126814,0.00188579,-0.00010809,-0.00004833,-0.00012470,0.00004131,-0.00
 000195,-0.00006624,0.00011618,-0.00032453,0.00002691,-0.00000843,0.000
 22249,-0.00010520,-0.00000522,0.00032401,0.00000711,-0.00001186,0.0001
 2263,-0.00000924,-0.00004635,0.00003385,-0.00030643,0.00008292,0.00018
 508,-0.00003452,0.00006084,-0.00020537,0.00038622,0.00006157,0.0000497
 0,0.00006382,-0.00004486,-0.00001593,0.00000796,0.00001148,0.00010160,
 -0.00006907,0.00019085,-0.00007910,-0.00002966,-0.00013717,-0.00007357
 ,0.00006439,-0.00012068,-0.00002790,-0.00001812,0.00003619,-0.00000039
 ,0.00000800,-0.00003271,0.00003416,-0.00001357,-0.00004011,0.00000694,
 0.00005797,0.00009394,-0.00018669,0.00011188,-0.00032239,0.00004343,-0
 .00011625,-0.00004984,0.00013501,-0.00007821,-0.00016252,0.00002927,-0
 .00003994,-0.00003727,0.00002931,-0.00002105,-0.00000930,0.00016853,-0
 .00033370,-0.00018052,0.00082541,-0.00003754,0.00104549,-0.00009001,0.
 00013002,0.00030441,-0.00019692,0.00021436,0.00008663,-0.00020000,0.00
 004387,0.00003682,0.00001653,-0.00001274,-0.00001284,-0.00000051,-0.00
 001329,-0.00002289,0.00002757,0.00000471,-0.00005080,0.00000578,-0.000
 01999,-0.00004185,-0.00001070,0.00000004,-0.00000707,-0.00006139,0.000
 07743,0.00004251,0.00006022,-0.00003812,-0.00011447,0.00005566,-0.0000
 3350,-0.00002864,0.00000398,0.00000051,-0.00000091,0.00000176,-0.00000
 097,0.00000205,-0.00000220,0.00001423,-0.00001173,0.00000537,-0.000009
 66,0.00000179,-0.00002196,-0.00031393,0.00011483,0.00015328,0.00029086
 ,-0.00021877,-0.00004915,0.00051964,0.00171360,0.00002693,-0.00050589,
 -0.00124095,0.00005570,0.00001707,0.00004062,-0.00008509,0.00011611,0.
 00005196,0.00003660,0.00002536,-0.00001797,-0.00002621,0.00000843,-0.0
 0000477,0.00027458,0.00005468,0.00027194,-0.00000758,-0.00002256,0.000
 01340,-0.00020440,-0.00004266,0.00013865,-0.00016486,-0.00015596,-0.00
 024690,0.00001441,-0.00001470,-0.00002021,0.00001227,0.00001123,0.0000
 2502,0.00000392,0.00000136,-0.00000298,0.00000595,-0.00000149,-0.00001
 988,-0.00001613,0.00000829,0.00000235,-0.00000654,0.00000074,0.0000041
 9,-0.00000662,0.00001460,0.00001812,0.00000026,0.00000118,0.00001000,-
 0.00000126,-0.00000151,0.00000454,-0.00001123,0.00002349,0.00004009,-0
 .00000087,0.00000141,0.00001060,0.00002643,0.00000787,-0.00001189,-0.0
 0002574,-0.00000838,0.00000121,-0.00001583,-0.00000141,0.00001555,0.00
 001095,-0.00002497,0.00001081,0.00000592,0.00000021,-0.00000693,-0.000
 00802,0.00000235,0.00000086,-0.00000244,0.00000082,-0.00000055,0.00000
 870,-0.00000112,0.00000394,-0.00000152,-0.00000090,-0.00000033,-0.0000
 0196,-0.00000052,0.00000010,0.00000262,-0.00000074,0.00000103,-0.00000
 031,0.00000098,-0.00000249,-0.00000429,-0.00000019,-0.00001040,-0.0000
 0053,-0.00000228,0.00000385,0.00000417,-0.00000194,-0.00000431,-0.0000
 0743,0.00000398,0.00000113,0.00000537,0.00000190,0.00000218,-0.0000000
 9,-0.00000163,-0.00000053,-0.00000071,0.00000131,-0.00000068,0.0000022
 3,-0.00000029,0.00000045,0.00000540,0.00000048,-0.00000039,-0.00000249
 ,-0.00000177,0.00000250,-0.00001077,0.00000787,-0.00001034,0.00000367,
 -0.00000067,-0.00000269,0.00006476,-0.00010766,-0.00042256,0.00002926,
 0.00006699,0.00001645,-0.00001495,-0.00008900,-0.00006560,0.00062486,0
 .00070721,0.00018419,-0.00080143,0.00032332,-0.00008054,-0.00015789,-0
 .00021700,-0.00041822,0.12251497,0.02205725,-0.05664586,-0.11203582,-0
 .01703781,0.05821174\\-0.00001363,0.00002614,0.00000308,-0.00001877,0.
 00023654,-0.00006239,-0.00012190,-0.00008369,0.00007874,0.00011333,0.0
 0005703,-0.00025343,0.00008087,0.00001017,0.00000043,-0.00047299,-0.00
 016379,0.00003830,0.00022267,0.00004579,0.00013180,-0.00018840,0.00019
 290,-0.00069069,-0.00004100,-0.00007601,-0.00004887,0.00000598,0.00005
 226,0.00002091,-0.00001419,-0.00003217,0.00000115,-0.00003552,0.000067
 39,-0.00000967,-0.00014706,-0.00012660,0.00010914,0.00019842,0.0001584
 2,-0.00011121,-0.00036626,0.00029179,-0.00025706,0.00002943,0.00003664
 ,0.00004652,-0.00000091,-0.00006524,0.00002801,0.00004879,0.00000169,0
 .00001175,0.00086130,-0.00110872,-0.00000625,-0.00234041,0.00088981,0.
 00032567,-0.00101261,0.00182551,-0.00040457,-0.00000731,-0.00000670,0.
 00001334,-0.00001657,0.00001309,0.00000987,0.00000080,-0.00001131,0.00
 001430,0.00001627,-0.00000014,-0.00000339,-0.00003975,-0.00004684,0.00
 004961,-0.00005047,-0.00001086,0.00007783,-0.00088136,-0.00015700,-0.0
 0043003,0.00058377,0.00083479,-0.00000257,0.00107856,-0.00035668,0.000
 01458,-0.00007452,0.00006842,-0.00006541,-0.00003587,-0.00007302,0.000
 11390,0.00022407,-0.00021762,0.00053079,0.00013331,-0.00001043,-0.0000
 8591,0.00596007,-0.00094595,-0.00292874,0.00011535,-0.00440989,-0.0013
 5113,-0.00084609,0.00149985,0.00125232,-0.00115936,-0.00111001,-0.0059
 7242,0.00284604,0.00077095,0.00466986,0.00113152,-0.00104529,0.0009207
 0,-0.00536620,-0.00182903,0.00087378,-0.00079588,0.00229170,-0.0001516
 3,0.00147851,0.00518076,0.00099690,-0.00126397,-0.00176462,0.00172407,
 -0.00001382,-0.00015096,0.00001527,0.00005942,0.00001387,0.00002752,-0
 .00061517,-0.00041952,0.00068505,0.00003174,0.00020192,0.00006522,-0.0
 0005810,0.00008222,0.00000601,0.00024076,-0.00106294,-0.00023871,-0.00
 021855,-0.00014547,0.00112787,0.00046299,0.00058894,-0.00040389,-0.000
 00658,0.00000142,0.00001055,-0.00000151,-0.00000352,0.00000039,0.00000
 186,0.00000389,0.00000175,0.00000007,-0.00000420,0.,0.00000004,0.00000
 795,-0.00000259,-0.00001201,0.00001168,-0.00000881,0.00001432,0.000001
 11,-0.00002307,-0.00001671,-0.00001833,-0.00001452,-0.00000332,0.00000
 114,-0.00000126,0.00001579,0.00000854,-0.00000075,0.00002302,-0.000001
 98,-0.00000825,0.00004830,-0.00002899,0.00001484,-0.00000639,-0.000003
 74,-0.00000633,-0.00000749,-0.00000904,-0.00000746,0.00008141,0.000121
 90,-0.00006965,0.00000241,-0.00001018,-0.00000935,0.00001366,0.0000047
 4,0.00000980,-0.00001567,-0.00003240,0.00000557,-0.00001279,0.00000986
 ,0.00002440,-0.00000508,0.00001241,0.00000418,0.00015434,0.00022503,-0
 .00003055,0.00005368,0.00001476,-0.00000819,-0.00000783,-0.00003115,-0
 .00004029,-0.00001360,0.00000757,-0.00002183,0.00011773,-0.00013034,0.
 00001271,0.00003607,-0.00022782,-0.00017123,0.00001607,-0.00000277,-0.
 00002874,-0.00000247,-0.00000020,-0.00000141,0.00000227,-0.00000058,0.
 00000058,-0.00000279,-0.00000033,0.00000263,0.00000009,-0.00000200,-0.
 00000156,0.00001443,-0.00000234,-0.00004171,0.00000160,0.00001498,-0.0
 0000028,-0.00000796,0.00002016,-0.00000805,-0.00000300,0.00000040,-0.0
 0000281,0.00000561,0.00000274,-0.00000603,-0.00000065,-0.00000120,0.00
 000097,-0.00000729,0.00000129,0.00000256,0.00000930,0.00000459,0.00001
 508,-0.00002183,-0.00002352,-0.00003157,0.00000528,0.00000635,0.000001
 70,0.00001812,-0.00000215,-0.00001936,0.00000823,-0.00000132,0.0000029
 4,-0.00003615,-0.00005042,-0.00001741,0.00000481,-0.00000037,0.0000024
 8,0.00000154,-0.00000029,0.00000105,-0.00000934,0.00001222,0.00000008,
 -0.00002158,-0.00001500,-0.00001035,0.00001141,-0.00000960,0.00000706,
 0.00000035,-0.00000675,0.00001277,0.00000625,-0.00000085,-0.00000242,0
 .00001149,0.00002637,-0.00004297,-0.00000448,0.00000456,0.00000479,0.0
 0000918,-0.00000825,0.00000217,0.00000056,0.00001187,-0.00000124,0.000
 00305,-0.00000288,0.00000281,-0.00000907,0.00000784,0.00000392,-0.0001
 7593,0.00006532,-0.00000143,0.00001185,0.00001371,-0.00001266\\\@


 ALL MY ATTEMPTS TO ADAPT THE THEORETICAL FOUNDATIONS OF PHYSICS
 TO THESE NEW NOTIONS FAILED COMPLETELY. IT WAS AS IF THE GROUND HAD
 BEEN PULLED OUT FROM UNDER ONE WITH NO FIRM FOUNDATION TO BE SEEN ANYWHERE,
 UPON WHICH ONE COULD HAVE BUILT.  -- A.EINSTEIN
 Job cpu time:      20 days 10 hours 41 minutes 40.9 seconds.
 File lengths (MBytes):  RWF=  82924 Int=      0 D2E=      0 Chk=    391 Scr=      4
 Normal termination of Gaussian 09 at Thu Dec 10 09:49:49 2020.
real 88667.77
user 1754274.91
sys 12226.12
Machine:
halstead-a098
halstead-a098
halstead-a098
halstead-a098
halstead-a098
halstead-a098
halstead-a098
halstead-a098
halstead-a098
halstead-a098
halstead-a098
halstead-a098
halstead-a098
halstead-a098
halstead-a098
halstead-a098
halstead-a098
halstead-a098
halstead-a098
halstead-a098
