 Entering Gaussian System, Link 0=/apps/rhel6/g09-E.01/g09/g09
 Initial command:
 /apps/rhel6/g09-E.01/g09/l1.exe "/scratch/halstead/y/ypushkar/gaussian/Gau-6171.inp" -scrdir="/scratch/halstead/y/ypushkar/gaussian/"
 Entering Link 1 = /apps/rhel6/g09-E.01/g09/l1.exe PID=      6172.
  
 Copyright (c) 1988,1990,1992,1993,1995,1998,2003,2009,2015,
            Gaussian, Inc.  All Rights Reserved.
  
 This is part of the Gaussian(R) 09 program.  It is based on
 the Gaussian(R) 03 system (copyright 2003, Gaussian, Inc.),
 the Gaussian(R) 98 system (copyright 1998, Gaussian, Inc.),
 the Gaussian(R) 94 system (copyright 1995, Gaussian, Inc.),
 the Gaussian 92(TM) system (copyright 1992, Gaussian, Inc.),
 the Gaussian 90(TM) system (copyright 1990, Gaussian, Inc.),
 the Gaussian 88(TM) system (copyright 1988, Gaussian, Inc.),
 the Gaussian 86(TM) system (copyright 1986, Carnegie Mellon
 University), and the Gaussian 82(TM) system (copyright 1983,
 Carnegie Mellon University). Gaussian is a federally registered
 trademark of Gaussian, Inc.
  
 This software contains proprietary and confidential information,
 including trade secrets, belonging to Gaussian, Inc.
  
 This software is provided under written license and may be
 used, copied, transmitted, or stored only in accord with that
 written license.
  
 The following legend is applicable only to US Government
 contracts under FAR:
  
                    RESTRICTED RIGHTS LEGEND
  
 Use, reproduction and disclosure by the US Government is
 subject to restrictions as set forth in subparagraphs (a)
 and (c) of the Commercial Computer Software - Restricted
 Rights clause in FAR 52.227-19.
  
 Gaussian, Inc.
 340 Quinnipiac St., Bldg. 40, Wallingford CT 06492
  
  
 ---------------------------------------------------------------
 Warning -- This program may not be used in any manner that
 competes with the business of Gaussian, Inc. or will provide
 assistance to any competitor of Gaussian, Inc.  The licensee
 of this program is prohibited from giving any competitor of
 Gaussian, Inc. access to this program.  By using this program,
 the user acknowledges that Gaussian, Inc. is engaged in the
 business of creating and licensing software in the field of
 computational chemistry and represents and warrants to the
 licensee that it is not a competitor of Gaussian, Inc. and that
 it will not use this program in any manner prohibited above.
 ---------------------------------------------------------------
  

 Cite this work as:
 Gaussian 09, Revision E.01,
 M. J. Frisch, G. W. Trucks, H. B. Schlegel, G. E. Scuseria, 
 M. A. Robb, J. R. Cheeseman, G. Scalmani, V. Barone, B. Mennucci, 
 G. A. Petersson, H. Nakatsuji, M. Caricato, X. Li, H. P. Hratchian, 
 A. F. Izmaylov, J. Bloino, G. Zheng, J. L. Sonnenberg, M. Hada, 
 M. Ehara, K. Toyota, R. Fukuda, J. Hasegawa, M. Ishida, T. Nakajima, 
 Y. Honda, O. Kitao, H. Nakai, T. Vreven, J. A. Montgomery, Jr., 
 J. E. Peralta, F. Ogliaro, M. Bearpark, J. J. Heyd, E. Brothers, 
 K. N. Kudin, V. N. Staroverov, T. Keith, R. Kobayashi, J. Normand, 
 K. Raghavachari, A. Rendell, J. C. Burant, S. S. Iyengar, J. Tomasi, 
 M. Cossi, N. Rega, J. M. Millam, M. Klene, J. E. Knox, J. B. Cross, 
 V. Bakken, C. Adamo, J. Jaramillo, R. Gomperts, R. E. Stratmann, 
 O. Yazyev, A. J. Austin, R. Cammi, C. Pomelli, J. W. Ochterski, 
 R. L. Martin, K. Morokuma, V. G. Zakrzewski, G. A. Voth, 
 P. Salvador, J. J. Dannenberg, S. Dapprich, A. D. Daniels, 
 O. Farkas, J. B. Foresman, J. V. Ortiz, J. Cioslowski, 
 and D. J. Fox, Gaussian, Inc., Wallingford CT, 2013.
 
 ******************************************
 Gaussian 09:  ES64L-G09RevE.01 30-Nov-2015
                10-Dec-2020 
 ******************************************
 %chk=OEC_Shen_spin7_m1_freq_Mn1OH_isomer_18O110.chk
 %mem=50GB
 %nprocshared=20
 Will use up to   20 processors via shared memory.
 ----------------------------
 # freq(Raman) def2tzvp ubp86
 ----------------------------
 1/10=4,30=1,38=1/1,3;
 2/12=2,17=6,18=5,40=1/2;
 3/5=44,7=101,11=2,16=1,25=1,30=1,71=2,74=404,116=2,140=1/1,2,3;
 4//1;
 5/5=2,38=5,98=1/2;
 8/6=4,10=90,11=11/1;
 10/13=10,15=4/2;
 11/6=3,8=1,9=11,15=111,16=1/1,2,10;
 10/6=1/2;
 6/7=2,8=2,9=2,10=2,18=1,28=1/1;
 7/8=1,10=1,25=1/1,2,3,16;
 1/10=4,30=1/3;
 99//99;
 -------------------
 Title Card Required
 -------------------
 Symbolic Z-matrix:
 Charge = -1 Multiplicity = 7
 C                    -6.02529  -1.72962  -1.58569 
 C                    -4.65286  -1.80885  -0.90332 
 O                    -4.45979  -1.07715   0.09935 
 O                    -3.82241  -2.62497  -1.42806 
 C                    -0.9043    1.70871   5.59943 
 C                    -0.99723   1.30723   4.12098 
 O                    -2.0778    0.92545   3.64243 
 O                     0.14874   1.42114   3.50463 
 C                     5.75361  -3.06163   1.04505 
 O                     6.28605  -2.09129   0.48934 
 C                     4.39933  -2.77598   3.21543 
 C                     3.7518   -1.53798   2.66474 
 C                     2.42744  -1.1655    2.65904 
 C                     3.51693   0.4629    1.71361 
 N                     2.29766   0.0732    2.06566 
 N                     5.1181   -4.0513    0.35858 
 C                     3.53119  -3.23887  -1.40896 
 C                     2.28143  -3.9634   -0.90953 
 C                     0.97519  -3.17799  -1.06933 
 O                     1.06574  -1.93243  -1.29821 
 O                    -0.07896  -3.8687   -0.91618 
 C                     4.40839   2.91182  -2.65238 
 C                     3.11106   2.80358  -2.18289 
 N                     5.09589   1.73636  -2.405 
 C                     4.22109   0.94015  -1.80084 
 N                     3.00635   1.53862  -1.64022 
 C                     2.02358   4.90728   0.87582 
 C                     1.20968   3.62873   0.69299 
 O                     0.35376   3.59367  -0.23767 
 O                     1.48949   2.67102   1.49138 
 C                    -3.47688   3.08187  -0.18817 
 O                    -3.82566   2.1283    0.54137 
 O                    -2.34131   3.21575  -0.79365 
 Ca                   -2.69003  -0.02716   1.41801 
 O                    -1.12782   1.78492   1.17275 
 O                    -1.85775   0.59163  -1.1691 
 O                     0.55035   0.69362  -0.27987 
 O                    -1.40962  -1.94533  -2.38111 
 O                    -1.35787  -1.64308  -0.00263 
 Mn                    0.42218   0.9574    1.62973 
 Mn                   -0.84749   1.96501  -0.63095 
 Mn                   -0.58944  -0.74146  -1.38435 
 Mn                   -1.93054  -3.12543  -1.04204 
 O                    -2.31373  -4.61436  -2.07779 
 O                    -5.20105   0.42215   2.18568 
 O                    -2.41003  -3.97419   0.59576 
 O                    -3.08004  -2.24005   2.49835 
 C                     0.45824   1.78306  -4.74852 
 C                     0.06991   1.37977  -3.33004 
 O                    -0.28259   2.31037  -2.52993 
 O                     0.16342   0.14774  -3.045 
 H                    -6.77872  -1.88593  -0.79546 
 H                    -6.1432   -0.68     -1.90297 
 H                    -0.17717   1.0255    6.07007 
 H                    -0.43908   2.70706   5.64128 
 H                     3.66982  -3.59502   3.11506 
 H                     4.57434  -2.66611   4.30065 
 H                     1.54691  -1.68776   3.01885 
 H                     3.76078   1.38317   1.19537 
 H                     3.47326  -3.10534  -2.50101 
 H                     3.56242  -2.22776  -0.97884 
 H                     2.14472  -4.93663  -1.40728 
 H                     2.35887  -4.17806   0.17139 
 H                     4.64356  -4.77075   0.89574 
 H                     2.26305   3.48086  -2.19191 
 H                     2.15761   1.14287  -1.19074 
 H                     4.41969  -0.07581  -1.47003 
 H                     2.23074   5.01388   1.95112 
 H                     2.99847   4.71831   0.39209 
 H                     0.1725    0.95173  -5.40974 
 H                     1.56183   1.81944  -4.76054 
 H                    -3.07873  -4.35522  -2.62547 
 H                    -5.36204  -0.11945   1.37459 
 H                    -5.07605   1.32199   1.81098 
 H                    -2.86027  -4.79832   0.33633 
 H                    -2.85895  -2.94443   1.79702 
 H                    -4.04046  -2.31511   2.62707 
 C                     5.06106   4.07114  -3.33888 
 H                     5.94216   4.42261  -2.77772 
 H                     5.41194   3.79171  -4.3456 
 H                     4.36171   4.91327  -3.44205 
 C                    -0.12481   3.11442  -5.2233 
 H                     0.17301   3.93633  -4.5589 
 H                     0.22396   3.3449   -6.24174 
 H                    -1.22401   3.08422  -5.23612 
 C                    -6.25194  -2.68108  -2.75887 
 H                    -6.15263  -3.73028  -2.44577 
 H                    -7.25994  -2.54323  -3.18141 
 H                    -5.51716  -2.50455  -3.55633 
 C                    -2.24084   1.68183   6.33787 
 H                    -2.69543   0.68284   6.29139 
 H                    -2.10676   1.95773   7.39594 
 H                    -2.95695   2.38206   5.88526 
 C                    -4.43137   4.25167  -0.40116 
 H                    -4.24664   4.99869   0.38681 
 H                    -4.25788   4.73114  -1.3726 
 H                    -5.47133   3.91193  -0.3162 
 C                     1.37591   6.1643    0.29475 
 H                     2.03733   7.03431   0.42651 
 H                     1.16821   6.04218  -0.77637 
 H                     0.41905   6.38246   0.79066 
 C                     4.84347  -3.96565  -1.07962 
 H                     4.83888  -4.99182  -1.48132 
 H                     5.69014  -3.42818  -1.52805 
 C                     5.74625  -3.18601   2.56858 
 H                     6.55569  -2.53545   2.9283 
 H                     5.99076  -4.21365   2.88295 
 N                     4.43045  -0.47809   2.07144 
 H                     5.38486  -0.53699   1.70785 
 O(Iso=18)            -0.30289  -0.65976   2.03931 
 H                    -0.46502  -1.2427    1.22793 
 

 GradGradGradGradGradGradGradGradGradGradGradGradGradGradGradGradGradGrad
 Berny optimization.
 Initialization pass.
 Trust Radius=3.00D-01 FncErr=1.00D-07 GrdErr=1.00D-07
 Number of steps in this run=      2 maximum allowed number of steps=      2.
 GradGradGradGradGradGradGradGradGradGradGradGradGradGradGradGradGradGrad

 Stoichiometry    C28H50CaMn4N5O23(1-,7)
 Framework group  C1[X(C28H50CaMn4N5O23)]
 Deg. of freedom   327
 Full point group                 C1      NOp   1
 Largest Abelian subgroup         C1      NOp   1
 Largest concise Abelian subgroup C1      NOp   1
                         Standard orientation:                         
 ---------------------------------------------------------------------
 Center     Atomic      Atomic             Coordinates (Angstroms)
 Number     Number       Type             X           Y           Z
 ---------------------------------------------------------------------
      1          6           0       -6.025294   -1.729616   -1.585688
      2          6           0       -4.652861   -1.808854   -0.903315
      3          8           0       -4.459787   -1.077148    0.099352
      4          8           0       -3.822414   -2.624970   -1.428060
      5          6           0       -0.904296    1.708706    5.599433
      6          6           0       -0.997229    1.307225    4.120977
      7          8           0       -2.077801    0.925453    3.642425
      8          8           0        0.148742    1.421142    3.504626
      9          6           0        5.753608   -3.061627    1.045053
     10          8           0        6.286051   -2.091292    0.489338
     11          6           0        4.399327   -2.775983    3.215433
     12          6           0        3.751795   -1.537976    2.664742
     13          6           0        2.427436   -1.165499    2.659041
     14          6           0        3.516928    0.462897    1.713605
     15          7           0        2.297658    0.073201    2.065656
     16          7           0        5.118104   -4.051300    0.358584
     17          6           0        3.531187   -3.238868   -1.408958
     18          6           0        2.281430   -3.963403   -0.909531
     19          6           0        0.975186   -3.177988   -1.069334
     20          8           0        1.065740   -1.932428   -1.298213
     21          8           0       -0.078956   -3.868695   -0.916181
     22          6           0        4.408386    2.911816   -2.652383
     23          6           0        3.111060    2.803580   -2.182893
     24          7           0        5.095892    1.736355   -2.404995
     25          6           0        4.221089    0.940151   -1.800841
     26          7           0        3.006346    1.538615   -1.640223
     27          6           0        2.023580    4.907280    0.875817
     28          6           0        1.209681    3.628734    0.692990
     29          8           0        0.353757    3.593671   -0.237667
     30          8           0        1.489491    2.671024    1.491375
     31          6           0       -3.476876    3.081867   -0.188168
     32          8           0       -3.825661    2.128297    0.541371
     33          8           0       -2.341311    3.215748   -0.793650
     34         20           0       -2.690030   -0.027156    1.418014
     35          8           0       -1.127824    1.784917    1.172750
     36          8           0       -1.857751    0.591633   -1.169103
     37          8           0        0.550347    0.693622   -0.279872
     38          8           0       -1.409619   -1.945329   -2.381112
     39          8           0       -1.357870   -1.643080   -0.002631
     40         25           0        0.422175    0.957398    1.629727
     41         25           0       -0.847485    1.965006   -0.630951
     42         25           0       -0.589444   -0.741458   -1.384345
     43         25           0       -1.930536   -3.125431   -1.042040
     44          8           0       -2.313733   -4.614355   -2.077788
     45          8           0       -5.201054    0.422152    2.185676
     46          8           0       -2.410026   -3.974188    0.595764
     47          8           0       -3.080044   -2.240048    2.498347
     48          6           0        0.458242    1.783057   -4.748516
     49          6           0        0.069912    1.379768   -3.330042
     50          8           0       -0.282591    2.310366   -2.529934
     51          8           0        0.163419    0.147740   -3.045004
     52          1           0       -6.778720   -1.885927   -0.795463
     53          1           0       -6.143201   -0.680003   -1.902972
     54          1           0       -0.177173    1.025504    6.070073
     55          1           0       -0.439075    2.707064    5.641277
     56          1           0        3.669818   -3.595023    3.115060
     57          1           0        4.574335   -2.666106    4.300650
     58          1           0        1.546906   -1.687762    3.018854
     59          1           0        3.760784    1.383169    1.195365
     60          1           0        3.473264   -3.105339   -2.501009
     61          1           0        3.562421   -2.227761   -0.978835
     62          1           0        2.144721   -4.936631   -1.407280
     63          1           0        2.358866   -4.178055    0.171388
     64          1           0        4.643559   -4.770749    0.895741
     65          1           0        2.263052    3.480861   -2.191913
     66          1           0        2.157607    1.142871   -1.190735
     67          1           0        4.419692   -0.075810   -1.470026
     68          1           0        2.230743    5.013876    1.951122
     69          1           0        2.998468    4.718305    0.392091
     70          1           0        0.172501    0.951730   -5.409737
     71          1           0        1.561834    1.819442   -4.760536
     72          1           0       -3.078733   -4.355216   -2.625467
     73          1           0       -5.362043   -0.119451    1.374590
     74          1           0       -5.076048    1.321994    1.810983
     75          1           0       -2.860273   -4.798322    0.336329
     76          1           0       -2.858953   -2.944429    1.797021
     77          1           0       -4.040459   -2.315113    2.627072
     78          6           0        5.061063    4.071136   -3.338878
     79          1           0        5.942159    4.422612   -2.777717
     80          1           0        5.411943    3.791711   -4.345597
     81          1           0        4.361705    4.913273   -3.442051
     82          6           0       -0.124814    3.114415   -5.223305
     83          1           0        0.173005    3.936331   -4.558903
     84          1           0        0.223962    3.344902   -6.241737
     85          1           0       -1.224006    3.084222   -5.236123
     86          6           0       -6.251935   -2.681077   -2.758874
     87          1           0       -6.152630   -3.730278   -2.445772
     88          1           0       -7.259937   -2.543234   -3.181414
     89          1           0       -5.517155   -2.504553   -3.556333
     90          6           0       -2.240840    1.681825    6.337869
     91          1           0       -2.695425    0.682839    6.291390
     92          1           0       -2.106760    1.957733    7.395943
     93          1           0       -2.956952    2.382057    5.885258
     94          6           0       -4.431371    4.251665   -0.401157
     95          1           0       -4.246639    4.998691    0.386809
     96          1           0       -4.257882    4.731138   -1.372604
     97          1           0       -5.471335    3.911928   -0.316196
     98          6           0        1.375910    6.164305    0.294751
     99          1           0        2.037328    7.034306    0.426505
    100          1           0        1.168205    6.042185   -0.776374
    101          1           0        0.419046    6.382456    0.790664
    102          6           0        4.843465   -3.965649   -1.079622
    103          1           0        4.838884   -4.991818   -1.481317
    104          1           0        5.690138   -3.428177   -1.528051
    105          6           0        5.746249   -3.186007    2.568575
    106          1           0        6.555694   -2.535448    2.928297
    107          1           0        5.990759   -4.213650    2.882951
    108          7           0        4.430451   -0.478088    2.071441
    109          1           0        5.384857   -0.536985    1.707850
    110          8           0       -0.302890   -0.659757    2.039310
    111          1           0       -0.465018   -1.242696    1.227928
 ---------------------------------------------------------------------
 Rotational constants (GHZ):      0.0419822      0.0341886      0.0306456
 Standard basis: def2TZVP (5D, 7F)
 There are  2563 symmetry adapted cartesian basis functions of A   symmetry.
 There are  2252 symmetry adapted basis functions of A   symmetry.
  2252 basis functions,  3741 primitive gaussians,  2563 cartesian basis functions
   282 alpha electrons      276 beta electrons
       nuclear repulsion energy     16431.3227084292 Hartrees.
 NAtoms=  111 NActive=  111 NUniq=  111 SFac= 1.00D+00 NAtFMM=   60 NAOKFM=T Big=T
 Integral buffers will be    131072 words long.
 Raffenetti 2 integral format.
 Two-electron integral symmetry is turned on.
 One-electron integrals computed using PRISM.
   1 Symmetry operations used in ECPInt.
 ECPInt:  NShTT=  396495 NPrTT= 1277675 LenC2=  270225 LenP2D=  537840.
 LDataN:  DoStor=T MaxTD1= 6 Len=  172
 NBasis=  2252 RedAO= T EigKep=  3.72D-05  NBF=  2252
 NBsUse=  2252 1.00D-06 EigRej= -1.00D+00 NBFU=  2252
 ExpMin= 2.68D-02 ExpMax= 2.77D+05 ExpMxC= 5.89D+03 IAcc=3 IRadAn=         5 AccDes= 0.00D+00
 Harris functional with IExCor=  404 and IRadAn=       5 diagonalized for initial guess.
 HarFok:  IExCor=  404 AccDes= 0.00D+00 IRadAn=         5 IDoV= 1 UseB2=F ITyADJ=14
 ICtDFT=  3500011 ScaDFX=  1.000000  1.000000  1.000000  1.000000
 FoFCou: FMM=F IPFlag=           0 FMFlag=      100000 FMFlg1=        2001
         NFxFlg=           0 DoJE=T BraDBF=F KetDBF=T FulRan=T
         wScrn=  0.000000 ICntrl=     500 IOpCl=  0 I1Cent=   200000004 NGrid=           0
         NMat0=    1 NMatS0=      1 NMatT0=    0 NMatD0=    1 NMtDS0=    0 NMtDT0=    0
 Petite list used in FoFCou.
 Initial guess <Sx>= 0.0000 <Sy>= 0.0000 <Sz>= 3.0000 <S**2>=12.0000 S= 3.0000
 Requested convergence on RMS density matrix=1.00D-08 within 128 cycles.
 Requested convergence on MAX density matrix=1.00D-06.
 Requested convergence on             energy=1.00D-06.
 No special actions if energy rises.
 EnCoef did     3 forward-backward iterations
 EnCoef did   100 forward-backward iterations
 EnCoef did   100 forward-backward iterations
 EnCoef did   100 forward-backward iterations
 EnCoef did   100 forward-backward iterations
 EnCoef did   100 forward-backward iterations
 EnCoef did    15 forward-backward iterations
 EnCoef did     2 forward-backward iterations
 EnCoef did     3 forward-backward iterations
 EnCoef did   100 forward-backward iterations
 EnCoef did   100 forward-backward iterations
 EnCoef did   100 forward-backward iterations
 EnCoef did   100 forward-backward iterations
 EnCoef did   100 forward-backward iterations
 EnCoef did   100 forward-backward iterations
 EnCoef did   100 forward-backward iterations
 EnCoef did    54 forward-backward iterations
 EnCoef did   100 forward-backward iterations
 Restarting incremental Fock formation.
 EnCoef did   100 forward-backward iterations
 EnCoef did    38 forward-backward iterations
 EnCoef did   100 forward-backward iterations
 EnCoef did   100 forward-backward iterations
 EnCoef did   100 forward-backward iterations
 EnCoef did    12 forward-backward iterations
 EnCoef did     4 forward-backward iterations
 EnCoef did     7 forward-backward iterations
 EnCoef did     4 forward-backward iterations
 EnCoef did     3 forward-backward iterations
 Restarting incremental Fock formation.
 SCF Done:  E(UB-P86) =  -8385.81224198     A.U. after   46 cycles
            NFock= 46  Conv=0.58D-08     -V/T= 2.0028
 <Sx>= 0.0000 <Sy>= 0.0000 <Sz>= 3.0000 <S**2>=14.9011 S= 3.3924
 <L.S>= 0.000000000000E+00
 Annihilation of the first spin contaminant:
 S**2 before annihilation    14.9011,   after    15.0187
 Range of M.O.s used for correlation:     1  2252
 NBasis=  2252 NAE=   282 NBE=   276 NFC=     0 NFV=     0
 NROrb=   2252 NOA=   282 NOB=   276 NVA=  1970 NVB=  1976

 **** Warning!!: The largest alpha MO coefficient is  0.24788788D+02


 **** Warning!!: The smallest alpha delta epsilon is  0.54978197D-01


 **** Warning!!: The largest beta MO coefficient is  0.24739152D+02


 **** Warning!!: The smallest beta delta epsilon is  0.45098684D-01

          Differentiating once with respect to electric field.
                with respect to dipole field.
          Electric field/nuclear overlap derivatives assumed to be zero.
          There are     3 degrees of freedom in the 1st order CPHF.  IDoFFX=0 NUNeed=     3.
      3 vectors produced by pass  0 Test12= 3.67D-11 3.33D-08 XBig12= 3.45D+03 9.04D+00.
 AX will form     3 AO Fock derivatives at one time.
      3 vectors produced by pass  1 Test12= 3.67D-11 3.33D-08 XBig12= 1.10D+04 2.12D+01.
      3 vectors produced by pass  2 Test12= 3.67D-11 3.33D-08 XBig12= 5.72D+04 2.50D+01.
      3 vectors produced by pass  3 Test12= 3.67D-11 3.33D-08 XBig12= 2.23D+05 6.71D+01.
      3 vectors produced by pass  4 Test12= 3.67D-11 3.33D-08 XBig12= 5.65D+05 7.96D+01.
      3 vectors produced by pass  5 Test12= 3.67D-11 3.33D-08 XBig12= 1.73D+06 2.12D+02.
      3 vectors produced by pass  6 Test12= 3.67D-11 3.33D-08 XBig12= 6.43D+06 3.70D+02.
      3 vectors produced by pass  7 Test12= 3.67D-11 3.33D-08 XBig12= 1.62D+07 3.44D+02.
      3 vectors produced by pass  8 Test12= 3.67D-11 3.33D-08 XBig12= 2.09D+07 3.55D+02.
      3 vectors produced by pass  9 Test12= 3.67D-11 3.33D-08 XBig12= 2.11D+07 5.90D+02.
      3 vectors produced by pass 10 Test12= 3.67D-11 3.33D-08 XBig12= 2.16D+07 7.18D+02.
      3 vectors produced by pass 11 Test12= 3.67D-11 3.33D-08 XBig12= 1.78D+07 3.37D+02.
      3 vectors produced by pass 12 Test12= 3.67D-11 3.33D-08 XBig12= 1.68D+07 3.64D+02.
      3 vectors produced by pass 13 Test12= 3.67D-11 3.33D-08 XBig12= 1.56D+07 3.11D+02.
      3 vectors produced by pass 14 Test12= 3.67D-11 3.33D-08 XBig12= 1.35D+07 3.35D+02.
      3 vectors produced by pass 15 Test12= 3.67D-11 3.33D-08 XBig12= 1.21D+07 3.32D+02.
      3 vectors produced by pass 16 Test12= 3.67D-11 3.33D-08 XBig12= 1.00D+07 2.50D+02.
      3 vectors produced by pass 17 Test12= 3.67D-11 3.33D-08 XBig12= 7.85D+06 3.03D+02.
      3 vectors produced by pass 18 Test12= 3.67D-11 3.33D-08 XBig12= 4.86D+06 2.31D+02.
      3 vectors produced by pass 19 Test12= 3.67D-11 3.33D-08 XBig12= 2.82D+06 1.83D+02.
      3 vectors produced by pass 20 Test12= 3.67D-11 3.33D-08 XBig12= 1.92D+06 2.52D+02.
      3 vectors produced by pass 21 Test12= 3.67D-11 3.33D-08 XBig12= 1.10D+06 1.60D+02.
      3 vectors produced by pass 22 Test12= 3.67D-11 3.33D-08 XBig12= 5.53D+05 1.39D+02.
      3 vectors produced by pass 23 Test12= 3.67D-11 3.33D-08 XBig12= 2.90D+05 6.57D+01.
      3 vectors produced by pass 24 Test12= 3.67D-11 3.33D-08 XBig12= 1.18D+05 4.61D+01.
      3 vectors produced by pass 25 Test12= 3.67D-11 3.33D-08 XBig12= 7.81D+04 2.49D+01.
      3 vectors produced by pass 26 Test12= 3.67D-11 3.33D-08 XBig12= 4.39D+04 1.83D+01.
      3 vectors produced by pass 27 Test12= 3.67D-11 3.33D-08 XBig12= 1.71D+04 1.17D+01.
      3 vectors produced by pass 28 Test12= 3.67D-11 3.33D-08 XBig12= 5.86D+03 5.63D+00.
      3 vectors produced by pass 29 Test12= 3.67D-11 3.33D-08 XBig12= 1.76D+03 2.43D+00.
      3 vectors produced by pass 30 Test12= 3.67D-11 3.33D-08 XBig12= 5.74D+02 1.43D+00.
      3 vectors produced by pass 31 Test12= 3.67D-11 3.33D-08 XBig12= 1.62D+02 7.78D-01.
      3 vectors produced by pass 32 Test12= 3.67D-11 3.33D-08 XBig12= 4.38D+01 6.35D-01.
      3 vectors produced by pass 33 Test12= 3.67D-11 3.33D-08 XBig12= 9.57D+00 2.85D-01.
      3 vectors produced by pass 34 Test12= 3.67D-11 3.33D-08 XBig12= 2.42D+00 1.08D-01.
      3 vectors produced by pass 35 Test12= 3.67D-11 3.33D-08 XBig12= 7.68D-01 6.80D-02.
      3 vectors produced by pass 36 Test12= 3.67D-11 3.33D-08 XBig12= 1.60D-01 3.58D-02.
      3 vectors produced by pass 37 Test12= 3.67D-11 3.33D-08 XBig12= 2.93D-02 1.20D-02.
      3 vectors produced by pass 38 Test12= 3.67D-11 3.33D-08 XBig12= 7.48D-03 5.39D-03.
      3 vectors produced by pass 39 Test12= 3.67D-11 3.33D-08 XBig12= 2.76D-03 3.01D-03.
      3 vectors produced by pass 40 Test12= 3.67D-11 3.33D-08 XBig12= 5.09D-04 1.58D-03.
      3 vectors produced by pass 41 Test12= 3.67D-11 3.33D-08 XBig12= 7.34D-05 4.49D-04.
      3 vectors produced by pass 42 Test12= 3.67D-11 3.33D-08 XBig12= 1.50D-05 2.36D-04.
      3 vectors produced by pass 43 Test12= 3.67D-11 3.33D-08 XBig12= 5.83D-06 1.38D-04.
      3 vectors produced by pass 44 Test12= 3.67D-11 3.33D-08 XBig12= 1.17D-06 7.16D-05.
      3 vectors produced by pass 45 Test12= 3.67D-11 3.33D-08 XBig12= 1.56D-07 2.71D-05.
      3 vectors produced by pass 46 Test12= 3.67D-11 3.33D-08 XBig12= 2.39D-08 1.25D-05.
      3 vectors produced by pass 47 Test12= 3.67D-11 3.33D-08 XBig12= 5.64D-09 4.17D-06.
      3 vectors produced by pass 48 Test12= 3.67D-11 3.33D-08 XBig12= 1.87D-09 2.09D-06.
      3 vectors produced by pass 49 Test12= 3.67D-11 3.33D-08 XBig12= 3.57D-10 1.53D-06.
      3 vectors produced by pass 50 Test12= 3.67D-11 3.33D-08 XBig12= 4.09D-11 3.58D-07.
      2 vectors produced by pass 51 Test12= 3.67D-11 3.33D-08 XBig12= 4.82D-12 1.49D-07.
      2 vectors produced by pass 52 Test12= 3.67D-11 3.33D-08 XBig12= 7.21D-13 6.84D-08.
 InvSVY:  IOpt=1 It=  1 EMax= 4.07D-14
 Solved reduced A of dimension   157 with     3 vectors.
 End of Minotr F.D. properties file   721 does not exist.
 End of Minotr F.D. properties file   722 does not exist.
 End of Minotr F.D. properties file   788 does not exist.
 PrsmSu:  requested number of processors reduced to:   6 ShMem   1 Linda.
   1 Symmetry operations used in ECPInt.
 ECPInt:  NShTT=  396495 NPrTT= 1277675 LenC2=  270225 LenP2D=  537840.
 LDataN:  DoStor=T MaxTD1= 7 Len=  274
 Number of processors reduced to   2 by ecpmxn.
 Symmetrizing basis deriv contribution to polar:
 IMax=3 JMax=2 DiffMx= 0.00D+00
 G2DrvN: will do    14 centers at a time, making    8 passes.
 PxScal for G2LodP:  IOpCl= 1 ISclPx=1 IMOff=     1 NMtTot=     4 NTT= 2536878 ScalPx= 5.17D+00
 Calling FoFCou, ICntrl=  3507 FMM=T I1Cent=   0 AccDes= 0.00D+00.
 PxScal for G2LodP:  IOpCl= 1 ISclPx=1 IMOff=     1 NMtTot=     4 NTT= 2536878 ScalPx= 5.17D+00
 Calling FoFCou, ICntrl=  3507 FMM=T I1Cent=   0 AccDes= 0.00D+00.
 PxScal for G2LodP:  IOpCl= 1 ISclPx=1 IMOff=     1 NMtTot=     4 NTT= 2536878 ScalPx= 5.17D+00
 Calling FoFCou, ICntrl=  3507 FMM=T I1Cent=   0 AccDes= 0.00D+00.
 PxScal for G2LodP:  IOpCl= 1 ISclPx=1 IMOff=     1 NMtTot=     4 NTT= 2536878 ScalPx= 5.17D+00
 Calling FoFCou, ICntrl=  3507 FMM=T I1Cent=   0 AccDes= 0.00D+00.
 PxScal for G2LodP:  IOpCl= 1 ISclPx=1 IMOff=     1 NMtTot=     4 NTT= 2536878 ScalPx= 5.17D+00
 Calling FoFCou, ICntrl=  3507 FMM=T I1Cent=   0 AccDes= 0.00D+00.
 PxScal for G2LodP:  IOpCl= 1 ISclPx=1 IMOff=     1 NMtTot=     4 NTT= 2536878 ScalPx= 5.17D+00
 Calling FoFCou, ICntrl=  3507 FMM=T I1Cent=   0 AccDes= 0.00D+00.
 PxScal for G2LodP:  IOpCl= 1 ISclPx=1 IMOff=     1 NMtTot=     4 NTT= 2536878 ScalPx= 5.17D+00
 Calling FoFCou, ICntrl=  3507 FMM=T I1Cent=   0 AccDes= 0.00D+00.
 PxScal for G2LodP:  IOpCl= 1 ISclPx=1 IMOff=     1 NMtTot=     4 NTT= 2536878 ScalPx= 5.17D+00
 Calling FoFCou, ICntrl=  3507 FMM=T I1Cent=   0 AccDes= 0.00D+00.
 End of G2Drv F.D. properties file   721 does not exist.
 End of G2Drv F.D. properties file   722 does not exist.
 End of G2Drv F.D. properties file   788 does not exist.
          IDoAtm=11111111111111111111111111111111111111111111111111
          IDoAtm=11111111111111111111111111111111111111111111111111
          IDoAtm=11111111111
          Differentiating once with respect to electric field.
                with respect to dipole field.
          Differentiating once with respect to nuclear coordinates.
 CalDSu exits because no D1Ps are significant.
          There are   336 degrees of freedom in the 1st order CPHF.  IDoFFX=5 NUNeed=   336.
 Will reuse    3 saved solutions.
    333 vectors produced by pass  0 Test12= 1.10D-12 1.00D-09 XBig12= 7.75D-01 1.24D-01.
 AX will form    42 AO Fock derivatives at one time.
    333 vectors produced by pass  1 Test12= 1.10D-12 1.00D-09 XBig12= 4.23D-01 8.71D-02.
    333 vectors produced by pass  2 Test12= 1.10D-12 1.00D-09 XBig12= 3.41D-03 3.50D-03.
    330 vectors produced by pass  3 Test12= 1.10D-12 1.00D-09 XBig12= 3.55D-05 3.44D-04.
    330 vectors produced by pass  4 Test12= 1.10D-12 1.00D-09 XBig12= 2.17D-07 2.50D-05.
    315 vectors produced by pass  5 Test12= 1.10D-12 1.00D-09 XBig12= 6.87D-10 1.09D-06.
    205 vectors produced by pass  6 Test12= 1.10D-12 1.00D-09 XBig12= 1.72D-12 6.51D-08.
     95 vectors produced by pass  7 Test12= 1.10D-12 1.00D-09 XBig12= 4.29D-14 6.16D-09.
     50 vectors produced by pass  8 Test12= 1.10D-12 1.00D-09 XBig12= 2.87D-14 2.62D-09.
     45 vectors produced by pass  9 Test12= 1.10D-12 1.00D-09 XBig12= 3.34D-14 3.07D-09.
     42 vectors produced by pass 10 Test12= 1.10D-12 1.00D-09 XBig12= 2.84D-14 2.29D-09.
      3 vectors produced by pass 11 Test12= 1.10D-12 1.00D-09 XBig12= 6.80D-15 1.22D-09.
 InvSVY:  IOpt=1 It=  1 EMax= 1.44D-15
 Solved reduced A of dimension  2414 with   336 vectors.
 Isotropic polarizability for W=    0.000000      688.65 Bohr**3.
 End of Minotr F.D. properties file   721 does not exist.
 End of Minotr F.D. properties file   722 does not exist.
 End of Minotr F.D. properties file   788 does not exist.
 Hyperfine terms turned off by default for NAtoms > 100.

 **********************************************************************

            Population analysis using the SCF density.

 **********************************************************************

 Orbital symmetries:
 Alpha Orbitals:
       Occupied  (A) (A) (A) (A) (A) (A) (A) (A) (A) (A) (A) (A)
                 (A) (A) (A) (A) (A) (A) (A) (A) (A) (A) (A) (A)
                 (A) (A) (A) (A) (A) (A) (A) (A) (A) (A) (A) (A)
                 (A) (A) (A) (A) (A) (A) (A) (A) (A) (A) (A) (A)
                 (A) (A) (A) (A) (A) (A) (A) (A) (A) (A) (A) (A)
                 (A) (A) (A) (A) (A) (A) (A) (A) (A) (A) (A) (A)
                 (A) (A) (A) (A) (A) (A) (A) (A) (A) (A) (A) (A)
                 (A) (A) (A) (A) (A) (A) (A) (A) (A) (A) (A) (A)
                 (A) (A) (A) (A) (A) (A) (A) (A) (A) (A) (A) (A)
                 (A) (A) (A) (A) (A) (A) (A) (A) (A) (A) (A) (A)
                 (A) (A) (A) (A) (A) (A) (A) (A) (A) (A) (A) (A)
                 (A) (A) (A) (A) (A) (A) (A) (A) (A) (A) (A) (A)
                 (A) (A) (A) (A) (A) (A) (A) (A) (A) (A) (A) (A)
                 (A) (A) (A) (A) (A) (A) (A) (A) (A) (A) (A) (A)
                 (A) (A) (A) (A) (A) (A) (A) (A) (A) (A) (A) (A)
                 (A) (A) (A) (A) (A) (A) (A) (A) (A) (A) (A) (A)
                 (A) (A) (A) (A) (A) (A) (A) (A) (A) (A) (A) (A)
                 (A) (A) (A) (A) (A) (A) (A) (A) (A) (A) (A) (A)
                 (A) (A) (A) (A) (A) (A) (A) (A) (A) (A) (A) (A)
                 (A) (A) (A) (A) (A) (A) (A) (A) (A) (A) (A) (A)
                 (A) (A) (A) (A) (A) (A) (A) (A) (A) (A) (A) (A)
                 (A) (A) (A) (A) (A) (A) (A) (A) (A) (A) (A) (A)
                 (A) (A) (A) (A) (A) (A) (A) (A) (A) (A) (A) (A)
                 (A) (A) (A) (A) (A) (A)
       Virtual   (A) (A) (A) (A) (A) (A) (A) (A) (A) (A) (A) (A)
                 (A) (A) (A) (A) (A) (A) (A) (A) (A) (A) (A) (A)
                 (A) (A) (A) (A) (A) (A) (A) (A) (A) (A) (A) (A)
                 (A) (A) (A) (A) (A) (A) (A) (A) (A) (A) (A) (A)
                 (A) (A) (A) (A) (A) (A) (A) (A) (A) (A) (A) (A)
                 (A) (A) (A) (A) (A) (A) (A) (A) (A) (A) (A) (A)
                 (A) (A) (A) (A) (A) (A) (A) (A) (A) (A) (A) (A)
                 (A) (A) (A) (A) (A) (A) (A) (A) (A) (A) (A) (A)
                 (A) (A) (A) (A) (A) (A) (A) (A) (A) (A) (A) (A)
                 (A) (A) (A) (A) (A) (A) (A) (A) (A) (A) (A) (A)
                 (A) (A) (A) (A) (A) (A) (A) (A) (A) (A) (A) (A)
                 (A) (A) (A) (A) (A) (A) (A) (A) (A) (A) (A) (A)
                 (A) (A) (A) (A) (A) (A) (A) (A) (A) (A) (A) (A)
                 (A) (A) (A) (A) (A) (A) (A) (A) (A) (A) (A) (A)
                 (A) (A) (A) (A) (A) (A) (A) (A) (A) (A) (A) (A)
                 (A) (A) (A) (A) (A) (A) (A) (A) (A) (A) (A) (A)
                 (A) (A) (A) (A) (A) (A) (A) (A) (A) (A) (A) (A)
                 (A) (A) (A) (A) (A) (A) (A) (A) (A) (A) (A) (A)
                 (A) (A) (A) (A) (A) (A) (A) (A) (A) (A) (A) (A)
                 (A) (A) (A) (A) (A) (A) (A) (A) (A) (A) (A) (A)
                 (A) (A) (A) (A) (A) (A) (A) (A) (A) (A) (A) (A)
                 (A) (A) (A) (A) (A) (A) (A) (A) (A) (A) (A) (A)
                 (A) (A) (A) (A) (A) (A) (A) (A) (A) (A) (A) (A)
                 (A) (A) (A) (A) (A) (A) (A) (A) (A) (A) (A) (A)
                 (A) (A) (A) (A) (A) (A) (A) (A) (A) (A) (A) (A)
                 (A) (A) (A) (A) (A) (A) (A) (A) (A) (A) (A) (A)
                 (A) (A) (A) (A) (A) (A) (A) (A) (A) (A) (A) (A)
                 (A) (A) (A) (A) (A) (A) (A) (A) (A) (A) (A) (A)
                 (A) (A) (A) (A) (A) (A) (A) (A) (A) (A) (A) (A)
                 (A) (A) (A) (A) (A) (A) (A) (A) (A) (A) (A) (A)
                 (A) (A) (A) (A) (A) (A) (A) (A) (A) (A) (A) (A)
                 (A) (A) (A) (A) (A) (A) (A) (A) (A) (A) (A) (A)
                 (A) (A) (A) (A) (A) (A) (A) (A) (A) (A) (A) (A)
                 (A) (A) (A) (A) (A) (A) (A) (A) (A) (A) (A) (A)
                 (A) (A) (A) (A) (A) (A) (A) (A) (A) (A) (A) (A)
                 (A) (A) (A) (A) (A) (A) (A) (A) (A) (A) (A) (A)
                 (A) (A) (A) (A) (A) (A) (A) (A) (A) (A) (A) (A)
                 (A) (A) (A) (A) (A) (A) (A) (A) (A) (A) (A) (A)
                 (A) (A) (A) (A) (A) (A) (A) (A) (A) (A) (A) (A)
                 (A) (A) (A) (A) (A) (A) (A) (A) (A) (A) (A) (A)
                 (A) (A) (A) (A) (A) (A) (A) (A) (A) (A) (A) (A)
                 (A) (A) (A) (A) (A) (A) (A) (A) (A) (A) (A) (A)
                 (A) (A) (A) (A) (A) (A) (A) (A) (A) (A) (A) (A)
                 (A) (A) (A) (A) (A) (A) (A) (A) (A) (A) (A) (A)
                 (A) (A) (A) (A) (A) (A) (A) (A) (A) (A) (A) (A)
                 (A) (A) (A) (A) (A) (A) (A) (A) (A) (A) (A) (A)
                 (A) (A) (A) (A) (A) (A) (A) (A) (A) (A) (A) (A)
                 (A) (A) (A) (A) (A) (A) (A) (A) (A) (A) (A) (A)
                 (A) (A) (A) (A) (A) (A) (A) (A) (A) (A) (A) (A)
                 (A) (A) (A) (A) (A) (A) (A) (A) (A) (A) (A) (A)
                 (A) (A) (A) (A) (A) (A) (A) (A) (A) (A) (A) (A)
                 (A) (A) (A) (A) (A) (A) (A) (A) (A) (A) (A) (A)
                 (A) (A) (A) (A) (A) (A) (A) (A) (A) (A) (A) (A)
                 (A) (A) (A) (A) (A) (A) (A) (A) (A) (A) (A) (A)
                 (A) (A) (A) (A) (A) (A) (A) (A) (A) (A) (A) (A)
                 (A) (A) (A) (A) (A) (A) (A) (A) (A) (A) (A) (A)
                 (A) (A) (A) (A) (A) (A) (A) (A) (A) (A) (A) (A)
                 (A) (A) (A) (A) (A) (A) (A) (A) (A) (A) (A) (A)
                 (A) (A) (A) (A) (A) (A) (A) (A) (A) (A) (A) (A)
                 (A) (A) (A) (A) (A) (A) (A) (A) (A) (A) (A) (A)
                 (A) (A) (A) (A) (A) (A) (A) (A) (A) (A) (A) (A)
                 (A) (A) (A) (A) (A) (A) (A) (A) (A) (A) (A) (A)
                 (A) (A) (A) (A) (A) (A) (A) (A) (A) (A) (A) (A)
                 (A) (A) (A) (A) (A) (A) (A) (A) (A) (A) (A) (A)
                 (A) (A) (A) (A) (A) (A) (A) (A) (A) (A) (A) (A)
                 (A) (A) (A) (A) (A) (A) (A) (A) (A) (A) (A) (A)
                 (A) (A) (A) (A) (A) (A) (A) (A) (A) (A) (A) (A)
                 (A) (A) (A) (A) (A) (A) (A) (A) (A) (A) (A) (A)
                 (A) (A) (A) (A) (A) (A) (A) (A) (A) (A) (A) (A)
                 (A) (A) (A) (A) (A) (A) (A) (A) (A) (A) (A) (A)
                 (A) (A) (A) (A) (A) (A) (A) (A) (A) (A) (A) (A)
                 (A) (A) (A) (A) (A) (A) (A) (A) (A) (A) (A) (A)
                 (A) (A) (A) (A) (A) (A) (A) (A) (A) (A) (A) (A)
                 (A) (A) (A) (A) (A) (A) (A) (A) (A) (A) (A) (A)
                 (A) (A) (A) (A) (A) (A) (A) (A) (A) (A) (A) (A)
                 (A) (A) (A) (A) (A) (A) (A) (A) (A) (A) (A) (A)
                 (A) (A) (A) (A) (A) (A) (A) (A) (A) (A) (A) (A)
                 (A) (A) (A) (A) (A) (A) (A) (A) (A) (A) (A) (A)
                 (A) (A) (A) (A) (A) (A) (A) (A) (A) (A) (A) (A)
                 (A) (A) (A) (A) (A) (A) (A) (A) (A) (A) (A) (A)
                 (A) (A) (A) (A) (A) (A) (A) (A) (A) (A) (A) (A)
                 (A) (A) (A) (A) (A) (A) (A) (A) (A) (A) (A) (A)
                 (A) (A) (A) (A) (A) (A) (A) (A) (A) (A) (A) (A)
                 (A) (A) (A) (A) (A) (A) (A) (A) (A) (A) (A) (A)
                 (A) (A) (A) (A) (A) (A) (A) (A) (A) (A) (A) (A)
                 (A) (A) (A) (A) (A) (A) (A) (A) (A) (A) (A) (A)
                 (A) (A) (A) (A) (A) (A) (A) (A) (A) (A) (A) (A)
                 (A) (A) (A) (A) (A) (A) (A) (A) (A) (A) (A) (A)
                 (A) (A) (A) (A) (A) (A) (A) (A) (A) (A) (A) (A)
                 (A) (A) (A) (A) (A) (A) (A) (A) (A) (A) (A) (A)
                 (A) (A) (A) (A) (A) (A) (A) (A) (A) (A) (A) (A)
                 (A) (A) (A) (A) (A) (A) (A) (A) (A) (A) (A) (A)
                 (A) (A) (A) (A) (A) (A) (A) (A) (A) (A) (A) (A)
                 (A) (A) (A) (A) (A) (A) (A) (A) (A) (A) (A) (A)
                 (A) (A) (A) (A) (A) (A) (A) (A) (A) (A) (A) (A)
                 (A) (A) (A) (A) (A) (A) (A) (A) (A) (A) (A) (A)
                 (A) (A) (A) (A) (A) (A) (A) (A) (A) (A) (A) (A)
                 (A) (A) (A) (A) (A) (A) (A) (A) (A) (A) (A) (A)
                 (A) (A) (A) (A) (A) (A) (A) (A) (A) (A) (A) (A)
                 (A) (A) (A) (A) (A) (A) (A) (A) (A) (A) (A) (A)
                 (A) (A) (A) (A) (A) (A) (A) (A) (A) (A) (A) (A)
                 (A) (A) (A) (A) (A) (A) (A) (A) (A) (A) (A) (A)
                 (A) (A) (A) (A) (A) (A) (A) (A) (A) (A) (A) (A)
                 (A) (A) (A) (A) (A) (A) (A) (A) (A) (A) (A) (A)
                 (A) (A) (A) (A) (A) (A) (A) (A) (A) (A) (A) (A)
                 (A) (A) (A) (A) (A) (A) (A) (A) (A) (A) (A) (A)
                 (A) (A) (A) (A) (A) (A) (A) (A) (A) (A) (A) (A)
                 (A) (A) (A) (A) (A) (A) (A) (A) (A) (A) (A) (A)
                 (A) (A) (A) (A) (A) (A) (A) (A) (A) (A) (A) (A)
                 (A) (A) (A) (A) (A) (A) (A) (A) (A) (A) (A) (A)
                 (A) (A) (A) (A) (A) (A) (A) (A) (A) (A) (A) (A)
                 (A) (A) (A) (A) (A) (A) (A) (A) (A) (A) (A) (A)
                 (A) (A) (A) (A) (A) (A) (A) (A) (A) (A) (A) (A)
                 (A) (A) (A) (A) (A) (A) (A) (A) (A) (A) (A) (A)
                 (A) (A) (A) (A) (A) (A) (A) (A) (A) (A) (A) (A)
                 (A) (A) (A) (A) (A) (A) (A) (A) (A) (A) (A) (A)
                 (A) (A) (A) (A) (A) (A) (A) (A) (A) (A) (A) (A)
                 (A) (A) (A) (A) (A) (A) (A) (A) (A) (A) (A) (A)
                 (A) (A) (A) (A) (A) (A) (A) (A) (A) (A) (A) (A)
                 (A) (A) (A) (A) (A) (A) (A) (A) (A) (A) (A) (A)
                 (A) (A) (A) (A) (A) (A) (A) (A) (A) (A) (A) (A)
                 (A) (A) (A) (A) (A) (A) (A) (A) (A) (A) (A) (A)
                 (A) (A) (A) (A) (A) (A) (A) (A) (A) (A) (A) (A)
                 (A) (A) (A) (A) (A) (A) (A) (A) (A) (A) (A) (A)
                 (A) (A) (A) (A) (A) (A) (A) (A) (A) (A) (A) (A)
                 (A) (A) (A) (A) (A) (A) (A) (A) (A) (A) (A) (A)
                 (A) (A) (A) (A) (A) (A) (A) (A) (A) (A) (A) (A)
                 (A) (A) (A) (A) (A) (A) (A) (A) (A) (A) (A) (A)
                 (A) (A) (A) (A) (A) (A) (A) (A) (A) (A) (A) (A)
                 (A) (A) (A) (A) (A) (A) (A) (A) (A) (A) (A) (A)
                 (A) (A) (A) (A) (A) (A) (A) (A) (A) (A) (A) (A)
                 (A) (A) (A) (A) (A) (A) (A) (A) (A) (A) (A) (A)
                 (A) (A) (A) (A) (A) (A) (A) (A) (A) (A) (A) (A)
                 (A) (A) (A) (A) (A) (A) (A) (A) (A) (A) (A) (A)
                 (A) (A) (A) (A) (A) (A) (A) (A) (A) (A) (A) (A)
                 (A) (A) (A) (A) (A) (A) (A) (A) (A) (A) (A) (A)
                 (A) (A) (A) (A) (A) (A) (A) (A) (A) (A) (A) (A)
                 (A) (A) (A) (A) (A) (A) (A) (A) (A) (A) (A) (A)
                 (A) (A) (A) (A) (A) (A) (A) (A) (A) (A) (A) (A)
                 (A) (A) (A) (A) (A) (A) (A) (A) (A) (A) (A) (A)
                 (A) (A) (A) (A) (A) (A) (A) (A) (A) (A) (A) (A)
                 (A) (A) (A) (A) (A) (A) (A) (A) (A) (A) (A) (A)
                 (A) (A) (A) (A) (A) (A) (A) (A) (A) (A) (A) (A)
                 (A) (A) (A) (A) (A) (A) (A) (A) (A) (A) (A) (A)
                 (A) (A) (A) (A) (A) (A) (A) (A) (A) (A) (A) (A)
                 (A) (A) (A) (A) (A) (A) (A) (A) (A) (A) (A) (A)
                 (A) (A) (A) (A) (A) (A) (A) (A) (A) (A) (A) (A)
                 (A) (A) (A) (A) (A) (A) (A) (A) (A) (A) (A) (A)
                 (A) (A) (A) (A) (A) (A) (A) (A) (A) (A) (A) (A)
                 (A) (A) (A) (A) (A) (A) (A) (A) (A) (A) (A) (A)
                 (A) (A) (A) (A) (A) (A) (A) (A) (A) (A) (A) (A)
                 (A) (A) (A) (A) (A) (A) (A) (A) (A) (A) (A) (A)
                 (A) (A) (A) (A) (A) (A) (A) (A) (A) (A) (A) (A)
                 (A) (A) (A) (A) (A) (A) (A) (A) (A) (A) (A) (A)
                 (A) (A) (A) (A) (A) (A) (A) (A) (A) (A) (A) (A)
                 (A) (A) (A) (A) (A) (A) (A) (A) (A) (A) (A) (A)
                 (A) (A) (A) (A) (A) (A) (A) (A) (A) (A) (A) (A)
                 (A) (A) (A) (A) (A) (A) (A) (A) (A) (A) (A) (A)
                 (A) (A) (A) (A) (A) (A) (A) (A) (A) (A) (A) (A)
                 (A) (A) (A) (A) (A) (A) (A) (A) (A) (A) (A) (A)
                 (A) (A) (A) (A) (A) (A) (A) (A) (A) (A) (A) (A)
                 (A) (A) (A) (A) (A) (A) (A) (A) (A) (A) (A) (A)
                 (A) (A) (A) (A) (A) (A) (A) (A) (A) (A) (A) (A)
                 (A) (A) (A) (A) (A) (A) (A) (A) (A) (A) (A) (A)
                 (A) (A)
 Beta  Orbitals:
       Occupied  (A) (A) (A) (A) (A) (A) (A) (A) (A) (A) (A) (A)
                 (A) (A) (A) (A) (A) (A) (A) (A) (A) (A) (A) (A)
                 (A) (A) (A) (A) (A) (A) (A) (A) (A) (A) (A) (A)
                 (A) (A) (A) (A) (A) (A) (A) (A) (A) (A) (A) (A)
                 (A) (A) (A) (A) (A) (A) (A) (A) (A) (A) (A) (A)
                 (A) (A) (A) (A) (A) (A) (A) (A) (A) (A) (A) (A)
                 (A) (A) (A) (A) (A) (A) (A) (A) (A) (A) (A) (A)
                 (A) (A) (A) (A) (A) (A) (A) (A) (A) (A) (A) (A)
                 (A) (A) (A) (A) (A) (A) (A) (A) (A) (A) (A) (A)
                 (A) (A) (A) (A) (A) (A) (A) (A) (A) (A) (A) (A)
                 (A) (A) (A) (A) (A) (A) (A) (A) (A) (A) (A) (A)
                 (A) (A) (A) (A) (A) (A) (A) (A) (A) (A) (A) (A)
                 (A) (A) (A) (A) (A) (A) (A) (A) (A) (A) (A) (A)
                 (A) (A) (A) (A) (A) (A) (A) (A) (A) (A) (A) (A)
                 (A) (A) (A) (A) (A) (A) (A) (A) (A) (A) (A) (A)
                 (A) (A) (A) (A) (A) (A) (A) (A) (A) (A) (A) (A)
                 (A) (A) (A) (A) (A) (A) (A) (A) (A) (A) (A) (A)
                 (A) (A) (A) (A) (A) (A) (A) (A) (A) (A) (A) (A)
                 (A) (A) (A) (A) (A) (A) (A) (A) (A) (A) (A) (A)
                 (A) (A) (A) (A) (A) (A) (A) (A) (A) (A) (A) (A)
                 (A) (A) (A) (A) (A) (A) (A) (A) (A) (A) (A) (A)
                 (A) (A) (A) (A) (A) (A) (A) (A) (A) (A) (A) (A)
                 (A) (A) (A) (A) (A) (A) (A) (A) (A) (A) (A) (A)
       Virtual   (A) (A) (A) (A) (A) (A) (A) (A) (A) (A) (A) (A)
                 (A) (A) (A) (A) (A) (A) (A) (A) (A) (A) (A) (A)
                 (A) (A) (A) (A) (A) (A) (A) (A) (A) (A) (A) (A)
                 (A) (A) (A) (A) (A) (A) (A) (A) (A) (A) (A) (A)
                 (A) (A) (A) (A) (A) (A) (A) (A) (A) (A) (A) (A)
                 (A) (A) (A) (A) (A) (A) (A) (A) (A) (A) (A) (A)
                 (A) (A) (A) (A) (A) (A) (A) (A) (A) (A) (A) (A)
                 (A) (A) (A) (A) (A) (A) (A) (A) (A) (A) (A) (A)
                 (A) (A) (A) (A) (A) (A) (A) (A) (A) (A) (A) (A)
                 (A) (A) (A) (A) (A) (A) (A) (A) (A) (A) (A) (A)
                 (A) (A) (A) (A) (A) (A) (A) (A) (A) (A) (A) (A)
                 (A) (A) (A) (A) (A) (A) (A) (A) (A) (A) (A) (A)
                 (A) (A) (A) (A) (A) (A) (A) (A) (A) (A) (A) (A)
                 (A) (A) (A) (A) (A) (A) (A) (A) (A) (A) (A) (A)
                 (A) (A) (A) (A) (A) (A) (A) (A) (A) (A) (A) (A)
                 (A) (A) (A) (A) (A) (A) (A) (A) (A) (A) (A) (A)
                 (A) (A) (A) (A) (A) (A) (A) (A) (A) (A) (A) (A)
                 (A) (A) (A) (A) (A) (A) (A) (A) (A) (A) (A) (A)
                 (A) (A) (A) (A) (A) (A) (A) (A) (A) (A) (A) (A)
                 (A) (A) (A) (A) (A) (A) (A) (A) (A) (A) (A) (A)
                 (A) (A) (A) (A) (A) (A) (A) (A) (A) (A) (A) (A)
                 (A) (A) (A) (A) (A) (A) (A) (A) (A) (A) (A) (A)
                 (A) (A) (A) (A) (A) (A) (A) (A) (A) (A) (A) (A)
                 (A) (A) (A) (A) (A) (A) (A) (A) (A) (A) (A) (A)
                 (A) (A) (A) (A) (A) (A) (A) (A) (A) (A) (A) (A)
                 (A) (A) (A) (A) (A) (A) (A) (A) (A) (A) (A) (A)
                 (A) (A) (A) (A) (A) (A) (A) (A) (A) (A) (A) (A)
                 (A) (A) (A) (A) (A) (A) (A) (A) (A) (A) (A) (A)
                 (A) (A) (A) (A) (A) (A) (A) (A) (A) (A) (A) (A)
                 (A) (A) (A) (A) (A) (A) (A) (A) (A) (A) (A) (A)
                 (A) (A) (A) (A) (A) (A) (A) (A) (A) (A) (A) (A)
                 (A) (A) (A) (A) (A) (A) (A) (A) (A) (A) (A) (A)
                 (A) (A) (A) (A) (A) (A) (A) (A) (A) (A) (A) (A)
                 (A) (A) (A) (A) (A) (A) (A) (A) (A) (A) (A) (A)
                 (A) (A) (A) (A) (A) (A) (A) (A) (A) (A) (A) (A)
                 (A) (A) (A) (A) (A) (A) (A) (A) (A) (A) (A) (A)
                 (A) (A) (A) (A) (A) (A) (A) (A) (A) (A) (A) (A)
                 (A) (A) (A) (A) (A) (A) (A) (A) (A) (A) (A) (A)
                 (A) (A) (A) (A) (A) (A) (A) (A) (A) (A) (A) (A)
                 (A) (A) (A) (A) (A) (A) (A) (A) (A) (A) (A) (A)
                 (A) (A) (A) (A) (A) (A) (A) (A) (A) (A) (A) (A)
                 (A) (A) (A) (A) (A) (A) (A) (A) (A) (A) (A) (A)
                 (A) (A) (A) (A) (A) (A) (A) (A) (A) (A) (A) (A)
                 (A) (A) (A) (A) (A) (A) (A) (A) (A) (A) (A) (A)
                 (A) (A) (A) (A) (A) (A) (A) (A) (A) (A) (A) (A)
                 (A) (A) (A) (A) (A) (A) (A) (A) (A) (A) (A) (A)
                 (A) (A) (A) (A) (A) (A) (A) (A) (A) (A) (A) (A)
                 (A) (A) (A) (A) (A) (A) (A) (A) (A) (A) (A) (A)
                 (A) (A) (A) (A) (A) (A) (A) (A) (A) (A) (A) (A)
                 (A) (A) (A) (A) (A) (A) (A) (A) (A) (A) (A) (A)
                 (A) (A) (A) (A) (A) (A) (A) (A) (A) (A) (A) (A)
                 (A) (A) (A) (A) (A) (A) (A) (A) (A) (A) (A) (A)
                 (A) (A) (A) (A) (A) (A) (A) (A) (A) (A) (A) (A)
                 (A) (A) (A) (A) (A) (A) (A) (A) (A) (A) (A) (A)
                 (A) (A) (A) (A) (A) (A) (A) (A) (A) (A) (A) (A)
                 (A) (A) (A) (A) (A) (A) (A) (A) (A) (A) (A) (A)
                 (A) (A) (A) (A) (A) (A) (A) (A) (A) (A) (A) (A)
                 (A) (A) (A) (A) (A) (A) (A) (A) (A) (A) (A) (A)
                 (A) (A) (A) (A) (A) (A) (A) (A) (A) (A) (A) (A)
                 (A) (A) (A) (A) (A) (A) (A) (A) (A) (A) (A) (A)
                 (A) (A) (A) (A) (A) (A) (A) (A) (A) (A) (A) (A)
                 (A) (A) (A) (A) (A) (A) (A) (A) (A) (A) (A) (A)
                 (A) (A) (A) (A) (A) (A) (A) (A) (A) (A) (A) (A)
                 (A) (A) (A) (A) (A) (A) (A) (A) (A) (A) (A) (A)
                 (A) (A) (A) (A) (A) (A) (A) (A) (A) (A) (A) (A)
                 (A) (A) (A) (A) (A) (A) (A) (A) (A) (A) (A) (A)
                 (A) (A) (A) (A) (A) (A) (A) (A) (A) (A) (A) (A)
                 (A) (A) (A) (A) (A) (A) (A) (A) (A) (A) (A) (A)
                 (A) (A) (A) (A) (A) (A) (A) (A) (A) (A) (A) (A)
                 (A) (A) (A) (A) (A) (A) (A) (A) (A) (A) (A) (A)
                 (A) (A) (A) (A) (A) (A) (A) (A) (A) (A) (A) (A)
                 (A) (A) (A) (A) (A) (A) (A) (A) (A) (A) (A) (A)
                 (A) (A) (A) (A) (A) (A) (A) (A) (A) (A) (A) (A)
                 (A) (A) (A) (A) (A) (A) (A) (A) (A) (A) (A) (A)
                 (A) (A) (A) (A) (A) (A) (A) (A) (A) (A) (A) (A)
                 (A) (A) (A) (A) (A) (A) (A) (A) (A) (A) (A) (A)
                 (A) (A) (A) (A) (A) (A) (A) (A) (A) (A) (A) (A)
                 (A) (A) (A) (A) (A) (A) (A) (A) (A) (A) (A) (A)
                 (A) (A) (A) (A) (A) (A) (A) (A) (A) (A) (A) (A)
                 (A) (A) (A) (A) (A) (A) (A) (A) (A) (A) (A) (A)
                 (A) (A) (A) (A) (A) (A) (A) (A) (A) (A) (A) (A)
                 (A) (A) (A) (A) (A) (A) (A) (A) (A) (A) (A) (A)
                 (A) (A) (A) (A) (A) (A) (A) (A) (A) (A) (A) (A)
                 (A) (A) (A) (A) (A) (A) (A) (A) (A) (A) (A) (A)
                 (A) (A) (A) (A) (A) (A) (A) (A) (A) (A) (A) (A)
                 (A) (A) (A) (A) (A) (A) (A) (A) (A) (A) (A) (A)
                 (A) (A) (A) (A) (A) (A) (A) (A) (A) (A) (A) (A)
                 (A) (A) (A) (A) (A) (A) (A) (A) (A) (A) (A) (A)
                 (A) (A) (A) (A) (A) (A) (A) (A) (A) (A) (A) (A)
                 (A) (A) (A) (A) (A) (A) (A) (A) (A) (A) (A) (A)
                 (A) (A) (A) (A) (A) (A) (A) (A) (A) (A) (A) (A)
                 (A) (A) (A) (A) (A) (A) (A) (A) (A) (A) (A) (A)
                 (A) (A) (A) (A) (A) (A) (A) (A) (A) (A) (A) (A)
                 (A) (A) (A) (A) (A) (A) (A) (A) (A) (A) (A) (A)
                 (A) (A) (A) (A) (A) (A) (A) (A) (A) (A) (A) (A)
                 (A) (A) (A) (A) (A) (A) (A) (A) (A) (A) (A) (A)
                 (A) (A) (A) (A) (A) (A) (A) (A) (A) (A) (A) (A)
                 (A) (A) (A) (A) (A) (A) (A) (A) (A) (A) (A) (A)
                 (A) (A) (A) (A) (A) (A) (A) (A) (A) (A) (A) (A)
                 (A) (A) (A) (A) (A) (A) (A) (A) (A) (A) (A) (A)
                 (A) (A) (A) (A) (A) (A) (A) (A) (A) (A) (A) (A)
                 (A) (A) (A) (A) (A) (A) (A) (A) (A) (A) (A) (A)
                 (A) (A) (A) (A) (A) (A) (A) (A) (A) (A) (A) (A)
                 (A) (A) (A) (A) (A) (A) (A) (A) (A) (A) (A) (A)
                 (A) (A) (A) (A) (A) (A) (A) (A) (A) (A) (A) (A)
                 (A) (A) (A) (A) (A) (A) (A) (A) (A) (A) (A) (A)
                 (A) (A) (A) (A) (A) (A) (A) (A) (A) (A) (A) (A)
                 (A) (A) (A) (A) (A) (A) (A) (A) (A) (A) (A) (A)
                 (A) (A) (A) (A) (A) (A) (A) (A) (A) (A) (A) (A)
                 (A) (A) (A) (A) (A) (A) (A) (A) (A) (A) (A) (A)
                 (A) (A) (A) (A) (A) (A) (A) (A) (A) (A) (A) (A)
                 (A) (A) (A) (A) (A) (A) (A) (A) (A) (A) (A) (A)
                 (A) (A) (A) (A) (A) (A) (A) (A) (A) (A) (A) (A)
                 (A) (A) (A) (A) (A) (A) (A) (A) (A) (A) (A) (A)
                 (A) (A) (A) (A) (A) (A) (A) (A) (A) (A) (A) (A)
                 (A) (A) (A) (A) (A) (A) (A) (A) (A) (A) (A) (A)
                 (A) (A) (A) (A) (A) (A) (A) (A) (A) (A) (A) (A)
                 (A) (A) (A) (A) (A) (A) (A) (A) (A) (A) (A) (A)
                 (A) (A) (A) (A) (A) (A) (A) (A) (A) (A) (A) (A)
                 (A) (A) (A) (A) (A) (A) (A) (A) (A) (A) (A) (A)
                 (A) (A) (A) (A) (A) (A) (A) (A) (A) (A) (A) (A)
                 (A) (A) (A) (A) (A) (A) (A) (A) (A) (A) (A) (A)
                 (A) (A) (A) (A) (A) (A) (A) (A) (A) (A) (A) (A)
                 (A) (A) (A) (A) (A) (A) (A) (A) (A) (A) (A) (A)
                 (A) (A) (A) (A) (A) (A) (A) (A) (A) (A) (A) (A)
                 (A) (A) (A) (A) (A) (A) (A) (A) (A) (A) (A) (A)
                 (A) (A) (A) (A) (A) (A) (A) (A) (A) (A) (A) (A)
                 (A) (A) (A) (A) (A) (A) (A) (A) (A) (A) (A) (A)
                 (A) (A) (A) (A) (A) (A) (A) (A) (A) (A) (A) (A)
                 (A) (A) (A) (A) (A) (A) (A) (A) (A) (A) (A) (A)
                 (A) (A) (A) (A) (A) (A) (A) (A) (A) (A) (A) (A)
                 (A) (A) (A) (A) (A) (A) (A) (A) (A) (A) (A) (A)
                 (A) (A) (A) (A) (A) (A) (A) (A) (A) (A) (A) (A)
                 (A) (A) (A) (A) (A) (A) (A) (A) (A) (A) (A) (A)
                 (A) (A) (A) (A) (A) (A) (A) (A) (A) (A) (A) (A)
                 (A) (A) (A) (A) (A) (A) (A) (A) (A) (A) (A) (A)
                 (A) (A) (A) (A) (A) (A) (A) (A) (A) (A) (A) (A)
                 (A) (A) (A) (A) (A) (A) (A) (A) (A) (A) (A) (A)
                 (A) (A) (A) (A) (A) (A) (A) (A) (A) (A) (A) (A)
                 (A) (A) (A) (A) (A) (A) (A) (A) (A) (A) (A) (A)
                 (A) (A) (A) (A) (A) (A) (A) (A) (A) (A) (A) (A)
                 (A) (A) (A) (A) (A) (A) (A) (A) (A) (A) (A) (A)
                 (A) (A) (A) (A) (A) (A) (A) (A) (A) (A) (A) (A)
                 (A) (A) (A) (A) (A) (A) (A) (A) (A) (A) (A) (A)
                 (A) (A) (A) (A) (A) (A) (A) (A) (A) (A) (A) (A)
                 (A) (A) (A) (A) (A) (A) (A) (A) (A) (A) (A) (A)
                 (A) (A) (A) (A) (A) (A) (A) (A) (A) (A) (A) (A)
                 (A) (A) (A) (A) (A) (A) (A) (A) (A) (A) (A) (A)
                 (A) (A) (A) (A) (A) (A) (A) (A) (A) (A) (A) (A)
                 (A) (A) (A) (A) (A) (A) (A) (A) (A) (A) (A) (A)
                 (A) (A) (A) (A) (A) (A) (A) (A) (A) (A) (A) (A)
                 (A) (A) (A) (A) (A) (A) (A) (A) (A) (A) (A) (A)
                 (A) (A) (A) (A) (A) (A) (A) (A) (A) (A) (A) (A)
                 (A) (A) (A) (A) (A) (A) (A) (A) (A) (A) (A) (A)
                 (A) (A) (A) (A) (A) (A) (A) (A) (A) (A) (A) (A)
                 (A) (A) (A) (A) (A) (A) (A) (A) (A) (A) (A) (A)
                 (A) (A) (A) (A) (A) (A) (A) (A) (A) (A) (A) (A)
                 (A) (A) (A) (A) (A) (A) (A) (A) (A) (A) (A) (A)
                 (A) (A) (A) (A) (A) (A) (A) (A) (A) (A) (A) (A)
                 (A) (A) (A) (A) (A) (A) (A) (A) (A) (A) (A) (A)
                 (A) (A) (A) (A) (A) (A) (A) (A) (A) (A) (A) (A)
                 (A) (A) (A) (A) (A) (A) (A) (A) (A) (A) (A) (A)
                 (A) (A) (A) (A) (A) (A) (A) (A) (A) (A) (A) (A)
                 (A) (A) (A) (A) (A) (A) (A) (A) (A) (A) (A) (A)
                 (A) (A) (A) (A) (A) (A) (A) (A)
 The electronic state is 7-A.
 Alpha  occ. eigenvalues -- -234.22406-234.21851-234.20421-234.20165-144.22426
 Alpha  occ. eigenvalues --  -26.85603 -26.84979 -26.83432 -26.79036 -23.00551
 Alpha  occ. eigenvalues --  -23.00383 -23.00337 -22.99986 -22.99768 -22.99667
 Alpha  occ. eigenvalues --  -22.98393 -22.98271 -22.98097 -22.95125 -22.94963
 Alpha  occ. eigenvalues --  -22.94738 -18.69136 -18.68553 -18.68393 -18.68295
 Alpha  occ. eigenvalues --  -18.68129 -18.68069 -18.67638 -18.67448 -18.67402
 Alpha  occ. eigenvalues --  -18.67246 -18.67064 -18.66483 -18.66247 -18.65731
 Alpha  occ. eigenvalues --  -18.65585 -18.65544 -18.65336 -18.64875 -18.64789
 Alpha  occ. eigenvalues --  -18.64709 -18.64541 -18.63133 -18.62748 -14.88477
 Alpha  occ. eigenvalues --  -13.99882 -13.98564 -13.95229 -13.95124 -13.88915
 Alpha  occ. eigenvalues --  -12.08548 -12.08518 -12.08484  -9.94792  -9.93103
 Alpha  occ. eigenvalues --   -9.92792  -9.92377  -9.91938  -9.91590  -9.91025
 Alpha  occ. eigenvalues --   -9.89562  -9.88154  -9.87914  -9.87731  -9.87277
 Alpha  occ. eigenvalues --   -9.85309  -9.85114  -9.83692  -9.83509  -9.83107
 Alpha  occ. eigenvalues --   -9.82837  -9.82782  -9.82206  -9.82146  -9.81800
 Alpha  occ. eigenvalues --   -9.81743  -9.81656  -9.81567  -9.81120  -9.81042
 Alpha  occ. eigenvalues --   -9.80588  -3.01287  -3.00811  -2.98972  -2.88896
 Alpha  occ. eigenvalues --   -1.91680  -1.91357  -1.91300  -1.91265  -1.90840
 Alpha  occ. eigenvalues --   -1.90753  -1.89378  -1.89167  -1.88740  -1.79863
 Alpha  occ. eigenvalues --   -1.79309  -1.78845  -1.49801  -0.90375  -0.90322
 Alpha  occ. eigenvalues --   -0.89882  -0.89569  -0.88395  -0.88348  -0.88136
 Alpha  occ. eigenvalues --   -0.87676  -0.83356  -0.83274  -0.82551  -0.82125
 Alpha  occ. eigenvalues --   -0.81993  -0.81874  -0.81310  -0.81219  -0.80285
 Alpha  occ. eigenvalues --   -0.80127  -0.80016  -0.79799  -0.79486  -0.76706
 Alpha  occ. eigenvalues --   -0.75210  -0.74835  -0.74691  -0.74156  -0.72893
 Alpha  occ. eigenvalues --   -0.72454  -0.71699  -0.70162  -0.69846  -0.69008
 Alpha  occ. eigenvalues --   -0.65791  -0.62981  -0.62368  -0.62185  -0.61878
 Alpha  occ. eigenvalues --   -0.61489  -0.60745  -0.58702  -0.57998  -0.54977
 Alpha  occ. eigenvalues --   -0.54353  -0.51317  -0.50922  -0.50563  -0.50170
 Alpha  occ. eigenvalues --   -0.49919  -0.49747  -0.48220  -0.47857  -0.45523
 Alpha  occ. eigenvalues --   -0.44108  -0.42505  -0.41691  -0.41274  -0.40916
 Alpha  occ. eigenvalues --   -0.40474  -0.40268  -0.40244  -0.39983  -0.39039
 Alpha  occ. eigenvalues --   -0.38596  -0.37651  -0.37639  -0.36543  -0.36428
 Alpha  occ. eigenvalues --   -0.36026  -0.35725  -0.35415  -0.35039  -0.34901
 Alpha  occ. eigenvalues --   -0.34684  -0.34403  -0.34224  -0.34100  -0.33963
 Alpha  occ. eigenvalues --   -0.33882  -0.33653  -0.33529  -0.33415  -0.33128
 Alpha  occ. eigenvalues --   -0.32955  -0.32830  -0.32647  -0.32390  -0.32098
 Alpha  occ. eigenvalues --   -0.31733  -0.31583  -0.31282  -0.31220  -0.30974
 Alpha  occ. eigenvalues --   -0.30727  -0.30212  -0.29945  -0.29743  -0.29641
 Alpha  occ. eigenvalues --   -0.29346  -0.28917  -0.28582  -0.28373  -0.28117
 Alpha  occ. eigenvalues --   -0.27957  -0.27898  -0.27714  -0.27632  -0.27538
 Alpha  occ. eigenvalues --   -0.27319  -0.27194  -0.26996  -0.26863  -0.26633
 Alpha  occ. eigenvalues --   -0.26607  -0.26236  -0.26011  -0.25822  -0.25518
 Alpha  occ. eigenvalues --   -0.25375  -0.25177  -0.24879  -0.24816  -0.24659
 Alpha  occ. eigenvalues --   -0.24564  -0.24439  -0.24247  -0.24143  -0.23890
 Alpha  occ. eigenvalues --   -0.23814  -0.23688  -0.23504  -0.23315  -0.23068
 Alpha  occ. eigenvalues --   -0.22772  -0.22574  -0.22334  -0.21833  -0.21599
 Alpha  occ. eigenvalues --   -0.21365  -0.21186  -0.20822  -0.20519  -0.20362
 Alpha  occ. eigenvalues --   -0.20060  -0.19665  -0.19525  -0.19288  -0.18497
 Alpha  occ. eigenvalues --   -0.18359  -0.18122  -0.17987  -0.17642  -0.17324
 Alpha  occ. eigenvalues --   -0.17164  -0.17068  -0.16837  -0.16641  -0.16483
 Alpha  occ. eigenvalues --   -0.16477  -0.16148  -0.15964  -0.15758  -0.15585
 Alpha  occ. eigenvalues --   -0.15545  -0.15189  -0.14974  -0.14877  -0.14646
 Alpha  occ. eigenvalues --   -0.14412  -0.14294  -0.14017  -0.13790  -0.13742
 Alpha  occ. eigenvalues --   -0.13454  -0.13219  -0.12991  -0.12624  -0.12046
 Alpha  occ. eigenvalues --   -0.11884  -0.11704  -0.11200  -0.10772  -0.09573
 Alpha  occ. eigenvalues --   -0.09343  -0.08699
 Alpha virt. eigenvalues --   -0.03202  -0.02363  -0.01942  -0.01463  -0.01330
 Alpha virt. eigenvalues --   -0.00852   0.00080   0.00581   0.01479   0.02686
 Alpha virt. eigenvalues --    0.03425   0.03909   0.04203   0.04603   0.05326
 Alpha virt. eigenvalues --    0.06124   0.06355   0.06501   0.06815   0.07103
 Alpha virt. eigenvalues --    0.07283   0.07451   0.08270   0.08838   0.08892
 Alpha virt. eigenvalues --    0.09381   0.09757   0.09869   0.10052   0.10499
 Alpha virt. eigenvalues --    0.10958   0.11068   0.11360   0.11405   0.11858
 Alpha virt. eigenvalues --    0.12130   0.12501   0.12752   0.13255   0.13498
 Alpha virt. eigenvalues --    0.13988   0.14220   0.14373   0.14620   0.14761
 Alpha virt. eigenvalues --    0.15128   0.15508   0.15519   0.15756   0.16039
 Alpha virt. eigenvalues --    0.16143   0.16359   0.16558   0.16661   0.16715
 Alpha virt. eigenvalues --    0.16892   0.16904   0.17071   0.17185   0.17477
 Alpha virt. eigenvalues --    0.17702   0.17779   0.17798   0.17886   0.18143
 Alpha virt. eigenvalues --    0.18248   0.18395   0.18537   0.18732   0.18850
 Alpha virt. eigenvalues --    0.19032   0.19428   0.19561   0.19789   0.19906
 Alpha virt. eigenvalues --    0.20112   0.20188   0.20263   0.20407   0.20675
 Alpha virt. eigenvalues --    0.20773   0.20883   0.21061   0.21279   0.21573
 Alpha virt. eigenvalues --    0.21921   0.22023   0.22166   0.22403   0.22568
 Alpha virt. eigenvalues --    0.22733   0.23024   0.23159   0.23503   0.23750
 Alpha virt. eigenvalues --    0.23982   0.24018   0.24133   0.24359   0.24527
 Alpha virt. eigenvalues --    0.24724   0.24776   0.25041   0.25323   0.25536
 Alpha virt. eigenvalues --    0.25596   0.25895   0.26173   0.26413   0.26673
 Alpha virt. eigenvalues --    0.26884   0.27061   0.27406   0.27619   0.27851
 Alpha virt. eigenvalues --    0.28059   0.28087   0.28359   0.28439   0.28577
 Alpha virt. eigenvalues --    0.28805   0.28902   0.29164   0.29213   0.29462
 Alpha virt. eigenvalues --    0.29802   0.29834   0.30144   0.30187   0.30461
 Alpha virt. eigenvalues --    0.30544   0.30804   0.30958   0.31343   0.31419
 Alpha virt. eigenvalues --    0.31871   0.32069   0.32354   0.32780   0.32977
 Alpha virt. eigenvalues --    0.33137   0.33503   0.33668   0.33878   0.33907
 Alpha virt. eigenvalues --    0.33957   0.34309   0.34481   0.34841   0.34930
 Alpha virt. eigenvalues --    0.35143   0.35226   0.35470   0.35765   0.36135
 Alpha virt. eigenvalues --    0.36360   0.36422   0.36556   0.36754   0.36975
 Alpha virt. eigenvalues --    0.37136   0.37343   0.37599   0.37935   0.38160
 Alpha virt. eigenvalues --    0.38430   0.38626   0.38815   0.38988   0.39036
 Alpha virt. eigenvalues --    0.39188   0.39410   0.39886   0.39994   0.40382
 Alpha virt. eigenvalues --    0.40562   0.40651   0.40770   0.41096   0.41145
 Alpha virt. eigenvalues --    0.41368   0.41572   0.41707   0.41886   0.42075
 Alpha virt. eigenvalues --    0.42278   0.42455   0.42524   0.42686   0.42804
 Alpha virt. eigenvalues --    0.42983   0.43345   0.43455   0.43599   0.43701
 Alpha virt. eigenvalues --    0.43844   0.43908   0.44035   0.44280   0.44399
 Alpha virt. eigenvalues --    0.44587   0.44624   0.44878   0.44932   0.45032
 Alpha virt. eigenvalues --    0.45215   0.45278   0.45565   0.45659   0.45781
 Alpha virt. eigenvalues --    0.45831   0.45946   0.46168   0.46375   0.46404
 Alpha virt. eigenvalues --    0.46622   0.46723   0.46795   0.46912   0.47026
 Alpha virt. eigenvalues --    0.47331   0.47369   0.47527   0.47664   0.47908
 Alpha virt. eigenvalues --    0.47960   0.48139   0.48413   0.48516   0.48587
 Alpha virt. eigenvalues --    0.48716   0.48785   0.48979   0.49021   0.49134
 Alpha virt. eigenvalues --    0.49363   0.49485   0.49537   0.49701   0.49756
 Alpha virt. eigenvalues --    0.49992   0.50091   0.50174   0.50389   0.50483
 Alpha virt. eigenvalues --    0.50688   0.50764   0.50858   0.51029   0.51173
 Alpha virt. eigenvalues --    0.51400   0.51508   0.51665   0.51799   0.52158
 Alpha virt. eigenvalues --    0.52244   0.52466   0.52486   0.52669   0.52854
 Alpha virt. eigenvalues --    0.52928   0.53001   0.53233   0.53313   0.53459
 Alpha virt. eigenvalues --    0.53650   0.53919   0.54019   0.54129   0.54338
 Alpha virt. eigenvalues --    0.54540   0.54748   0.54916   0.55036   0.55159
 Alpha virt. eigenvalues --    0.55339   0.55577   0.55644   0.55891   0.56153
 Alpha virt. eigenvalues --    0.56441   0.56601   0.56754   0.56867   0.56936
 Alpha virt. eigenvalues --    0.57149   0.57540   0.57605   0.57901   0.57931
 Alpha virt. eigenvalues --    0.58235   0.58392   0.58511   0.58766   0.59038
 Alpha virt. eigenvalues --    0.59155   0.59226   0.59585   0.59735   0.59885
 Alpha virt. eigenvalues --    0.59967   0.60294   0.60433   0.60793   0.60944
 Alpha virt. eigenvalues --    0.61051   0.61366   0.61727   0.61868   0.61996
 Alpha virt. eigenvalues --    0.62303   0.62550   0.62732   0.63074   0.63431
 Alpha virt. eigenvalues --    0.63760   0.63886   0.63974   0.64320   0.64733
 Alpha virt. eigenvalues --    0.65007   0.65247   0.65557   0.65689   0.65984
 Alpha virt. eigenvalues --    0.66348   0.66570   0.67001   0.67236   0.67700
 Alpha virt. eigenvalues --    0.68010   0.68174   0.68292   0.68437   0.68986
 Alpha virt. eigenvalues --    0.69057   0.69534   0.69764   0.70198   0.70328
 Alpha virt. eigenvalues --    0.70751   0.70922   0.71386   0.71757   0.71866
 Alpha virt. eigenvalues --    0.72058   0.72599   0.72709   0.73140   0.73625
 Alpha virt. eigenvalues --    0.73754   0.73868   0.74192   0.74477   0.74750
 Alpha virt. eigenvalues --    0.75295   0.75358   0.75509   0.75753   0.75963
 Alpha virt. eigenvalues --    0.76451   0.76532   0.76658   0.76751   0.77080
 Alpha virt. eigenvalues --    0.77670   0.77721   0.78156   0.78426   0.78517
 Alpha virt. eigenvalues --    0.78871   0.79095   0.79410   0.79846   0.80100
 Alpha virt. eigenvalues --    0.80329   0.80535   0.80757   0.81159   0.81346
 Alpha virt. eigenvalues --    0.81555   0.81831   0.82015   0.82405   0.82510
 Alpha virt. eigenvalues --    0.82776   0.82877   0.82994   0.83278   0.83334
 Alpha virt. eigenvalues --    0.83857   0.84097   0.84164   0.84348   0.84635
 Alpha virt. eigenvalues --    0.85226   0.85378   0.85635   0.85879   0.86108
 Alpha virt. eigenvalues --    0.86202   0.86540   0.86626   0.86906   0.87244
 Alpha virt. eigenvalues --    0.87467   0.87626   0.87769   0.88037   0.88327
 Alpha virt. eigenvalues --    0.88391   0.88505   0.88705   0.88922   0.89080
 Alpha virt. eigenvalues --    0.89538   0.89781   0.89897   0.90414   0.90600
 Alpha virt. eigenvalues --    0.90675   0.91009   0.91342   0.91598   0.91609
 Alpha virt. eigenvalues --    0.91998   0.92199   0.92733   0.92765   0.92855
 Alpha virt. eigenvalues --    0.93116   0.93589   0.93706   0.94030   0.94161
 Alpha virt. eigenvalues --    0.94328   0.94733   0.95048   0.95266   0.95560
 Alpha virt. eigenvalues --    0.96241   0.96379   0.96483   0.96967   0.97056
 Alpha virt. eigenvalues --    0.97398   0.97729   0.97930   0.98378   0.98393
 Alpha virt. eigenvalues --    0.98493   0.98984   0.99076   0.99528   0.99780
 Alpha virt. eigenvalues --    1.00076   1.00308   1.00604   1.00757   1.01099
 Alpha virt. eigenvalues --    1.01355   1.01407   1.01506   1.01816   1.02099
 Alpha virt. eigenvalues --    1.02542   1.02989   1.03061   1.03298   1.03530
 Alpha virt. eigenvalues --    1.04043   1.04142   1.04353   1.04453   1.04759
 Alpha virt. eigenvalues --    1.04881   1.05344   1.05723   1.06104   1.06411
 Alpha virt. eigenvalues --    1.06603   1.06781   1.07215   1.07564   1.07841
 Alpha virt. eigenvalues --    1.08036   1.08362   1.08771   1.09135   1.09468
 Alpha virt. eigenvalues --    1.09560   1.09921   1.10152   1.10357   1.10627
 Alpha virt. eigenvalues --    1.10720   1.11010   1.11321   1.11717   1.11914
 Alpha virt. eigenvalues --    1.12149   1.12402   1.12492   1.12878   1.13144
 Alpha virt. eigenvalues --    1.13277   1.13386   1.13818   1.13911   1.14141
 Alpha virt. eigenvalues --    1.14284   1.14460   1.14826   1.14998   1.15302
 Alpha virt. eigenvalues --    1.15783   1.15825   1.16299   1.16490   1.16641
 Alpha virt. eigenvalues --    1.16829   1.17149   1.17440   1.17523   1.17664
 Alpha virt. eigenvalues --    1.17843   1.18145   1.18330   1.18580   1.19298
 Alpha virt. eigenvalues --    1.19398   1.19591   1.19876   1.20126   1.20405
 Alpha virt. eigenvalues --    1.20706   1.20913   1.21025   1.21392   1.21534
 Alpha virt. eigenvalues --    1.21923   1.22024   1.22405   1.22647   1.22913
 Alpha virt. eigenvalues --    1.23348   1.23453   1.23639   1.23822   1.24311
 Alpha virt. eigenvalues --    1.24622   1.24753   1.25271   1.25724   1.25903
 Alpha virt. eigenvalues --    1.26173   1.26783   1.26847   1.26982   1.27185
 Alpha virt. eigenvalues --    1.27853   1.27961   1.28162   1.28641   1.28916
 Alpha virt. eigenvalues --    1.28984   1.29137   1.29531   1.30025   1.30352
 Alpha virt. eigenvalues --    1.30491   1.30788   1.31322   1.31651   1.31739
 Alpha virt. eigenvalues --    1.32639   1.32799   1.33114   1.33513   1.33949
 Alpha virt. eigenvalues --    1.34210   1.34634   1.35087   1.36169   1.36494
 Alpha virt. eigenvalues --    1.36708   1.36981   1.37255   1.37588   1.38119
 Alpha virt. eigenvalues --    1.38222   1.38503   1.38787   1.39357   1.40271
 Alpha virt. eigenvalues --    1.40344   1.40963   1.41373   1.41491   1.41876
 Alpha virt. eigenvalues --    1.42166   1.42647   1.42822   1.43338   1.43484
 Alpha virt. eigenvalues --    1.43910   1.44270   1.44374   1.44948   1.45498
 Alpha virt. eigenvalues --    1.45671   1.46116   1.46477   1.46615   1.47068
 Alpha virt. eigenvalues --    1.47352   1.47625   1.47869   1.48517   1.48923
 Alpha virt. eigenvalues --    1.49191   1.49318   1.49646   1.49919   1.50504
 Alpha virt. eigenvalues --    1.50738   1.50834   1.51096   1.51376   1.51495
 Alpha virt. eigenvalues --    1.51844   1.51920   1.52174   1.52644   1.52912
 Alpha virt. eigenvalues --    1.53050   1.53154   1.53446   1.53731   1.53869
 Alpha virt. eigenvalues --    1.54007   1.54058   1.54184   1.54421   1.54548
 Alpha virt. eigenvalues --    1.54638   1.54937   1.55142   1.55342   1.55754
 Alpha virt. eigenvalues --    1.55781   1.55908   1.56297   1.56420   1.56524
 Alpha virt. eigenvalues --    1.56703   1.56901   1.57075   1.57352   1.57514
 Alpha virt. eigenvalues --    1.57653   1.57709   1.57885   1.58086   1.58154
 Alpha virt. eigenvalues --    1.58304   1.58736   1.58932   1.59029   1.59319
 Alpha virt. eigenvalues --    1.59522   1.59789   1.59822   1.59947   1.60296
 Alpha virt. eigenvalues --    1.60643   1.60769   1.61169   1.61520   1.61686
 Alpha virt. eigenvalues --    1.61893   1.62003   1.62297   1.62568   1.62649
 Alpha virt. eigenvalues --    1.63085   1.63234   1.63383   1.63851   1.63974
 Alpha virt. eigenvalues --    1.64135   1.64548   1.64881   1.64994   1.65448
 Alpha virt. eigenvalues --    1.65676   1.65778   1.65905   1.66119   1.66337
 Alpha virt. eigenvalues --    1.66765   1.67173   1.67383   1.67575   1.67792
 Alpha virt. eigenvalues --    1.68077   1.68323   1.68628   1.68988   1.69103
 Alpha virt. eigenvalues --    1.69464   1.69763   1.69994   1.70302   1.70604
 Alpha virt. eigenvalues --    1.70947   1.71109   1.71521   1.71697   1.71906
 Alpha virt. eigenvalues --    1.72236   1.72691   1.73110   1.73606   1.73759
 Alpha virt. eigenvalues --    1.74152   1.74546   1.75132   1.75274   1.75614
 Alpha virt. eigenvalues --    1.75751   1.76154   1.76395   1.76646   1.77093
 Alpha virt. eigenvalues --    1.77440   1.77923   1.78183   1.78562   1.78957
 Alpha virt. eigenvalues --    1.79055   1.79291   1.79356   1.79757   1.79809
 Alpha virt. eigenvalues --    1.80178   1.80467   1.80645   1.81130   1.81210
 Alpha virt. eigenvalues --    1.81291   1.81496   1.81718   1.82339   1.82484
 Alpha virt. eigenvalues --    1.82683   1.82962   1.83420   1.83697   1.84366
 Alpha virt. eigenvalues --    1.84926   1.85188   1.85666   1.85736   1.86254
 Alpha virt. eigenvalues --    1.86388   1.86492   1.86994   1.87474   1.87794
 Alpha virt. eigenvalues --    1.88041   1.88176   1.88436   1.88883   1.89354
 Alpha virt. eigenvalues --    1.89549   1.89696   1.89841   1.90241   1.90838
 Alpha virt. eigenvalues --    1.91123   1.91299   1.91845   1.92152   1.92547
 Alpha virt. eigenvalues --    1.92863   1.93183   1.93341   1.93590   1.94073
 Alpha virt. eigenvalues --    1.94301   1.94734   1.94864   1.95404   1.95490
 Alpha virt. eigenvalues --    1.95816   1.95995   1.96515   1.96608   1.97152
 Alpha virt. eigenvalues --    1.97292   1.97695   1.97884   1.98464   1.98778
 Alpha virt. eigenvalues --    1.98929   1.99197   1.99378   1.99758   2.00040
 Alpha virt. eigenvalues --    2.00162   2.00683   2.01040   2.01532   2.02162
 Alpha virt. eigenvalues --    2.02234   2.02459   2.02941   2.03291   2.03488
 Alpha virt. eigenvalues --    2.03787   2.04032   2.04319   2.04677   2.04951
 Alpha virt. eigenvalues --    2.05243   2.05372   2.05750   2.06172   2.06209
 Alpha virt. eigenvalues --    2.06682   2.07178   2.07560   2.07701   2.08031
 Alpha virt. eigenvalues --    2.08416   2.08481   2.08808   2.09433   2.09674
 Alpha virt. eigenvalues --    2.09955   2.10045   2.10613   2.10686   2.10935
 Alpha virt. eigenvalues --    2.11371   2.11563   2.11611   2.12120   2.12246
 Alpha virt. eigenvalues --    2.12707   2.12963   2.13447   2.13603   2.13732
 Alpha virt. eigenvalues --    2.14198   2.14533   2.14615   2.15506   2.15842
 Alpha virt. eigenvalues --    2.16033   2.16643   2.17077   2.17126   2.17410
 Alpha virt. eigenvalues --    2.17758   2.17848   2.18210   2.18776   2.19073
 Alpha virt. eigenvalues --    2.19646   2.19797   2.20130   2.20209   2.20427
 Alpha virt. eigenvalues --    2.20711   2.21013   2.21547   2.21984   2.22200
 Alpha virt. eigenvalues --    2.22493   2.23020   2.23468   2.23689   2.23921
 Alpha virt. eigenvalues --    2.24195   2.24526   2.24768   2.25259   2.25279
 Alpha virt. eigenvalues --    2.25721   2.26041   2.26341   2.26415   2.26781
 Alpha virt. eigenvalues --    2.27203   2.27269   2.27416   2.28070   2.28721
 Alpha virt. eigenvalues --    2.28865   2.29012   2.29198   2.29494   2.29747
 Alpha virt. eigenvalues --    2.30136   2.30231   2.30473   2.30749   2.30815
 Alpha virt. eigenvalues --    2.31269   2.31499   2.31956   2.32013   2.32264
 Alpha virt. eigenvalues --    2.32351   2.32671   2.32790   2.33470   2.33654
 Alpha virt. eigenvalues --    2.33823   2.33890   2.34399   2.34533   2.34740
 Alpha virt. eigenvalues --    2.35023   2.35442   2.35530   2.35534   2.36290
 Alpha virt. eigenvalues --    2.36581   2.36623   2.37154   2.37296   2.37551
 Alpha virt. eigenvalues --    2.37949   2.38269   2.38350   2.38845   2.39082
 Alpha virt. eigenvalues --    2.39316   2.39813   2.39972   2.40283   2.40529
 Alpha virt. eigenvalues --    2.40656   2.41197   2.41347   2.41471   2.41682
 Alpha virt. eigenvalues --    2.41869   2.42452   2.42631   2.42899   2.43206
 Alpha virt. eigenvalues --    2.43446   2.43720   2.44100   2.44200   2.44877
 Alpha virt. eigenvalues --    2.45094   2.45504   2.45736   2.46239   2.46382
 Alpha virt. eigenvalues --    2.46629   2.46738   2.47514   2.47845   2.48307
 Alpha virt. eigenvalues --    2.48502   2.48793   2.49085   2.49573   2.49914
 Alpha virt. eigenvalues --    2.50453   2.50504   2.50701   2.51718   2.51760
 Alpha virt. eigenvalues --    2.52229   2.52551   2.52845   2.53126   2.53487
 Alpha virt. eigenvalues --    2.53661   2.53938   2.54370   2.54607   2.54851
 Alpha virt. eigenvalues --    2.55052   2.55200   2.55428   2.55780   2.55815
 Alpha virt. eigenvalues --    2.56304   2.56861   2.57037   2.57232   2.57426
 Alpha virt. eigenvalues --    2.57632   2.57744   2.58052   2.58400   2.58663
 Alpha virt. eigenvalues --    2.58712   2.58858   2.59023   2.59234   2.59435
 Alpha virt. eigenvalues --    2.59522   2.59861   2.60202   2.60460   2.61039
 Alpha virt. eigenvalues --    2.61372   2.61492   2.61877   2.62387   2.62410
 Alpha virt. eigenvalues --    2.62757   2.63050   2.63208   2.63480   2.63855
 Alpha virt. eigenvalues --    2.64072   2.64267   2.64536   2.64720   2.65146
 Alpha virt. eigenvalues --    2.65351   2.65762   2.66049   2.66387   2.66835
 Alpha virt. eigenvalues --    2.67517   2.67684   2.68009   2.68069   2.68360
 Alpha virt. eigenvalues --    2.68788   2.69024   2.69543   2.69630   2.69678
 Alpha virt. eigenvalues --    2.70311   2.70513   2.70920   2.71038   2.71474
 Alpha virt. eigenvalues --    2.71662   2.71846   2.72262   2.72511   2.73073
 Alpha virt. eigenvalues --    2.73265   2.73801   2.74131   2.74259   2.74776
 Alpha virt. eigenvalues --    2.74867   2.75404   2.75631   2.76182   2.76794
 Alpha virt. eigenvalues --    2.76911   2.77185   2.77385   2.78002   2.78370
 Alpha virt. eigenvalues --    2.78979   2.79875   2.80088   2.80238   2.80837
 Alpha virt. eigenvalues --    2.81094   2.81489   2.82114   2.82875   2.83249
 Alpha virt. eigenvalues --    2.83434   2.83731   2.83943   2.84582   2.84752
 Alpha virt. eigenvalues --    2.84867   2.85223   2.85646   2.85831   2.86331
 Alpha virt. eigenvalues --    2.86632   2.86897   2.87114   2.87256   2.87331
 Alpha virt. eigenvalues --    2.87584   2.88241   2.88295   2.88676   2.88803
 Alpha virt. eigenvalues --    2.89045   2.89652   2.90053   2.90690   2.91387
 Alpha virt. eigenvalues --    2.91521   2.91742   2.91973   2.92642   2.93225
 Alpha virt. eigenvalues --    2.93459   2.93859   2.94588   2.94793   2.95657
 Alpha virt. eigenvalues --    2.96004   2.96355   2.96391   2.96968   2.97373
 Alpha virt. eigenvalues --    2.97749   2.98306   2.98871   2.99009   2.99225
 Alpha virt. eigenvalues --    2.99418   2.99772   3.00067   3.00373   3.00437
 Alpha virt. eigenvalues --    3.00915   3.01435   3.01681   3.02093   3.02460
 Alpha virt. eigenvalues --    3.02638   3.02866   3.03016   3.03310   3.03417
 Alpha virt. eigenvalues --    3.04028   3.04165   3.04424   3.04856   3.05214
 Alpha virt. eigenvalues --    3.05560   3.05812   3.06016   3.06247   3.06292
 Alpha virt. eigenvalues --    3.06661   3.06721   3.07194   3.07445   3.07533
 Alpha virt. eigenvalues --    3.07646   3.07921   3.08096   3.08339   3.08868
 Alpha virt. eigenvalues --    3.08984   3.09176   3.09452   3.09605   3.09824
[...]
 010794,0.00013415,-0.00001323,-0.00001592,-0.00116811,0.00017001,-0.00
 001659,0.00068289,-0.00023990,-0.00016440,0.00115951,-0.00006901,0.000
 01623,0.00002154,-0.00001805,0.00001156,0.00000597,-0.00007512,0.00008
 179,0.00013113,0.00004814,0.00000606,-0.00007816,0.00007326,0.00003619
 ,0.00027494,0.00009731,-0.00003341,0.00021029,-0.00021026,0.00002733,-
 0.00123885,0.00054568,-0.00175282,0.00083059,0.00073649,0.00119326,-0.
 00063493,-0.00209503,0.00322056,0.00052555,0.00011590,-0.00046498,-0.0
 0005146,-0.00000044,0.00048166,-0.00049013,0.00038423,0.00035612,-0.00
 189290,0.00025923,-0.00656719,0.00124736,0.00519681,0.00186542,-0.0001
 3983,0.00230071,0.00038689,0.00326806,0.00891364,-0.00211461,0.0006070
 1,-0.00000044,-0.00128380,-0.02184612,-0.01843926,-0.03647698,0.009808
 07,0.02465747,-0.04291380,0.00014162,-0.00285392,-0.00178055,-0.004381
 68,-0.00656178,0.00541397,0.00174371,0.00808533,0.00222788,-0.00085784
 ,-0.00200613,-0.00155576,-0.00014039,0.00021462,0.00050738,-0.00038454
 ,-0.00016038,0.00192903,0.00068064,0.00069720,0.00124955,-0.00008879,0
 .00020550,-0.00000387,0.00020678,-0.00172660,-0.00022827,-0.00012565,0
 .00067081,0.00071905,0.00059692,0.00168999,-0.00091496,-0.00008361,-0.
 00000668,-0.00000025,-0.00004635,0.00002357,-0.00003077,0.00003798,0.0
 0006410,-0.00007163,0.00010674,-0.00004079,-0.00006388,0.00002727,-0.0
 0001846,-0.00004042,-0.00004042,0.00007083,-0.00002193,0.00092327,-0.0
 0120956,-0.00012007,-0.00010905,0.00002173,-0.00004041,0.00000393,0.00
 001302,0.00003221,-0.00004119,0.00004506,-0.00004763,0.00003704,0.0000
 0369,-0.00000024,0.00008028,-0.00008153,0.00005123,-0.00002475,-0.0000
 3376,-0.00004343,-0.00003153,-0.00003701,-0.00003783,-0.00048761,-0.00
 003634,0.00010823,-0.00002677,-0.00004498,-0.00006336,0.00004033,0.000
 06207,0.00003783,0.00004620,0.00003391,-0.00000061,-0.00001765,0.00000
 731,0.00003759,0.00000140,0.00001578,-0.00002138,0.00019292,-0.0002695
 9,0.00003378,0.00016339,-0.00024591,-0.00035035,0.00001282,-0.00004108
 ,-0.00014220,0.00002056,0.00011716,-0.00005727,0.00029140,-0.00099817,
 -0.00150396,0.00017414,0.00018886,-0.00002722,-0.00000132,-0.00000930,
 -0.00000937,0.00001606,0.00000867,0.00000212,-0.00000463,0.00000435,-0
 .00000161,-0.00000326,-0.00000449,-0.00000546,0.00004801,-0.00001895,-
 0.00009058,-0.00000477,0.00001756,0.00001599,-0.00000984,0.00004636,-0
 .00004454,-0.00000454,-0.00000402,0.00000817,0.00000248,0.00000729,0.0
 0001235,0.00005372,0.00001383,-0.00000472,-0.00006891,0.00001451,-0.00
 002530,0.00002868,-0.00002356,0.00004572,0.00004281,0.00006525,0.00016
 193,-0.00003806,0.00000159,0.00005575,-0.00005823,-0.00003906,-0.00008
 716,0.00003670,-0.00001245,0.00003631,-0.00008519,-0.00002462,-0.00001
 972,-0.00000276,0.00002037,0.00000704,-0.00000025,-0.00000970,0.000002
 83,-0.00002571,0.00001401,-0.00001076,-0.00002735,-0.00006935,-0.00002
 779,0.00001374,-0.00002087,0.00000968,-0.00000799,-0.00001852,0.000025
 96,-0.00000877,-0.00000703,-0.00001332,-0.00001465,0.00007404,-0.00029
 663,0.00000308,0.00000445,0.00004185,0.00004426,-0.00003268,0.00002067
 ,-0.00000432,0.00003930,0.00003614,-0.00000776,-0.00000754,0.00003222,
 -0.00004159,0.00004110,0.00002014,-0.00093556,-0.00037774,0.00023794,0
 .00004416,-0.00028433,-0.00014027,0.03591701,0.13017661,0.29539524,0.0
 0004256,-0.00003446,-0.00003462,-0.00060456,0.00049416,0.00021608,0.00
 035349,-0.00037204,-0.00014865,0.00051404,-0.00035704,-0.00007312,0.00
 001577,-0.00020567,0.00010473,0.00161438,-0.00022499,-0.00135248,-0.00
 149301,0.00034706,0.00001379,0.00000431,0.00198011,0.00142338,0.000133
 34,0.00031829,0.00023054,0.00001931,-0.00024196,-0.00012886,-0.0000786
 5,0.00015562,0.00000760,-0.00045794,0.00015581,0.00003035,-0.00076849,
 0.00020417,-0.00013224,-0.00037357,-0.00007509,0.00024080,0.00056094,-
 0.00000217,0.00051743,-0.00005825,-0.00018523,-0.00020482,-0.00003294,
 0.00016927,-0.00006720,-0.00017110,-0.00003752,0.00009728,0.00131823,0
 .00218170,0.00025053,-0.00105498,-0.00078389,-0.00038539,-0.00181073,-
 0.00042605,0.00014433,-0.00000420,-0.00000367,-0.00001098,-0.00000215,
 -0.00003541,-0.00004379,0.00000710,0.00002657,-0.00006117,-0.00006540,
 -0.00000463,-0.00001467,0.00007712,-0.00003492,-0.00013338,-0.00006064
 ,0.00008397,-0.00014018,0.00087963,-0.00103560,0.00154870,-0.00089728,
 -0.00015663,-0.00096705,0.00016732,0.00145259,-0.00059391,0.00039557,0
 .00040805,-0.00031483,-0.00022457,-0.00059172,0.00016266,-0.00058772,-
 0.00002093,0.00001022,-0.00710915,0.00839768,0.00257204,-0.00117177,0.
 00049032,-0.00216853,-0.00017664,-0.00259001,-0.00035564,-0.00232563,0
 .00054269,-0.00405580,-0.00057809,-0.00013906,0.00135808,-0.00388045,0
 .00173335,0.01054772,-0.00649132,-0.01668166,0.00096875,0.00251343,0.0
 0090250,0.00256032,0.00671260,0.00701337,-0.00339592,-0.00102613,-0.00
 567410,-0.00253622,0.00060822,0.00146207,0.00124047,0.00021869,-0.0003
 7347,-0.00022990,-0.00000528,0.00035971,-0.00048199,0.00072319,-0.0001
 2919,-0.00077578,0.00013238,-0.00027047,-0.00000138,-0.00036529,0.0020
 6951,0.00062235,0.00012696,-0.00078094,-0.00101131,-0.00075346,-0.0021
 6570,0.00113056,0.00004107,0.00001184,0.00000393,0.00002958,-0.0000128
 7,0.00002802,-0.00000716,-0.00000470,0.00004028,-0.00004860,-0.0000225
 8,-0.00002209,-0.00000399,-0.00001625,-0.00001265,0.00008942,-0.000082
 18,0.00005462,-0.00044011,0.00009584,-0.00088615,0.00004942,0.00000109
 ,0.00005234,0.00001094,-0.00001527,-0.00003639,-0.00003515,-0.00005863
 ,0.00005199,0.00001179,-0.00003788,-0.00005712,-0.00010829,0.00013812,
 -0.00007750,-0.00001223,0.00005555,0.00002187,0.00001919,0.00002804,0.
 00005183,-0.00009635,-0.00003234,0.00024099,0.00000221,0.00003975,0.00
 005412,-0.00003569,-0.00003786,-0.00002595,-0.00000924,0.00001536,-0.0
 0000250,0.00001744,-0.00000700,-0.00005062,-0.00000321,-0.00001269,0.0
 0001953,-0.00016787,0.00019359,-0.00000466,-0.00014660,0.00022359,0.00
 015805,0.00007441,0.00015872,0.00000101,0.00005889,-0.00000394,0.00011
 757,-0.00064005,-0.00061815,0.00034579,0.00006642,0.00026545,-0.000006
 66,0.00000367,-0.00000461,0.00001111,0.00000023,0.00000562,-0.00000044
 ,0.00001302,0.00000167,-0.00001477,-0.00000270,0.00001116,0.00000492,-
 0.00005230,0.00001448,0.00010791,0.00000272,-0.00002390,-0.00000749,0.
 00001713,-0.00004742,0.00002958,-0.00000038,0.00000448,-0.00000277,0.0
 0001650,-0.00000757,-0.00000327,-0.00003772,-0.00001115,-0.00000067,0.
 00005889,-0.00000361,0.00002887,-0.00002450,0.00001748,-0.00002364,0.0
 0005198,0.00001686,0.00005342,-0.00000686,-0.00001544,0.00000164,-0.00
 002835,0.00000650,0.00005227,-0.00002053,0.00001339,-0.00001263,-0.000
 01984,-0.00003263,0.00007886,-0.00000203,-0.00000607,-0.00000457,0.000
 01425,-0.00001379,0.00001013,-0.00002591,0.00001964,0.00000577,0.00005
 063,0.00003059,0.00002131,-0.00000603,0.00003689,-0.00001145,-0.000003
 27,0.00000755,-0.00001848,-0.00000953,0.00000547,0.00000754,-0.0000430
 2,-0.00003346,0.00018100,0.00000667,-0.00002733,-0.00002359,-0.0000207
 9,0.00002609,-0.00000956,-0.00002267,-0.00003820,-0.00000389,0.0000000
 4,0.00001420,-0.00002226,0.00003964,-0.00004559,-0.00001687,0.00087988
 ,0.00014390,-0.00021322,-0.00023130,0.00004386,0.00000090,-0.01295058,
 -0.01556648,-0.02260689,0.02912766,0.00003308,-0.00008136,-0.00009137,
 -0.00084995,0.00109162,0.00087724,0.00011136,-0.00091001,-0.00089110,0
 .00106711,-0.00045865,-0.00003487,-0.00007041,-0.00014066,0.00009169,0
 .00255994,0.00028353,-0.00086389,-0.00106353,-0.00026311,-0.00025969,-
 0.00157878,0.00212823,0.00210674,0.00024910,0.00044833,0.00020574,-0.0
 0007582,-0.00032493,-0.00006072,0.00001939,0.00014450,-0.00000468,0.00
 011425,-0.00003869,-0.00017363,0.00041900,0.00041391,-0.00047322,-0.00
 060410,-0.00028289,0.00025356,0.00048756,0.00009197,-0.00005990,-0.000
 18017,-0.00019402,-0.00022080,0.00004167,0.00015704,-0.00002558,-0.000
 04794,-0.00002437,-0.00016772,0.00195362,0.00049441,-0.00089642,-0.000
 41722,-0.00064126,0.00047286,-0.00132464,-0.00003883,0.00090845,0.0000
 1168,-0.00002777,-0.00000783,0.00000019,-0.00012256,-0.00000822,0.0001
 1326,-0.00000020,-0.00006967,-0.00013035,0.00012071,-0.00002715,0.0002
 6889,0.00004398,-0.00021277,-0.00000933,0.00007652,-0.00009626,0.00042
 269,-0.00101547,0.00102158,-0.00059326,0.00007840,-0.00078651,0.000001
 06,0.00112106,-0.00044050,0.00031938,0.00005984,-0.00004698,-0.0003141
 3,-0.00008501,-0.00016357,-0.00058990,0.00008615,-0.00023426,0.0078696
 8,0.00121640,0.00056221,-0.00176219,0.00152225,-0.00204755,-0.00005302
 ,-0.00339004,-0.00207196,-0.00065614,0.00126586,-0.00563203,-0.0009607
 6,-0.00060612,0.00110743,0.00719387,-0.00719063,0.01733693,-0.00760454
 ,-0.02489746,-0.00409457,0.00240238,-0.00034754,0.00520721,0.00498141,
 0.01056810,-0.00198088,-0.00230778,-0.00486076,-0.00479974,0.00022702,
 0.00019199,0.00042059,-0.00035775,-0.00031467,-0.00014058,0.00045501,0
 .00022434,0.00012303,0.00047550,-0.00085674,-0.00047501,0.00012981,-0.
 00030107,-0.00002963,-0.00047044,0.00245526,0.00087464,0.00031725,-0.0
 0088352,-0.00157869,-0.00060989,-0.00235101,0.00092936,0.00005755,0.00
 000860,0.00000294,0.00004595,-0.00002435,0.00003328,-0.00001591,-0.000
 01775,0.00004880,-0.00004449,-0.00000405,0.00000373,0.00001256,-0.0000
 6664,0.00002467,0.00003933,-0.00004723,0.00002108,-0.00033470,0.000579
 48,0.00042760,-0.00000497,0.00002742,0.00003005,-0.00003109,-0.0000140
 9,0.00000565,0.00001722,-0.00002446,0.00000747,-0.00003183,-0.00003036
 ,0.00003689,0.00004951,-0.00001801,0.00001174,0.00005062,0.00000211,0.
 00002110,0.00000230,0.00001169,0.00005921,-0.00050835,-0.00001533,0.00
 037261,0.00002701,0.00002381,0.00003733,-0.00003120,-0.00001185,-0.000
 01555,0.00000869,0.00002873,-0.00000459,0.00001574,-0.00000212,-0.0000
 7575,0.00000670,-0.00000680,0.00000125,-0.00000452,0.00003535,-0.00005
 584,-0.00003712,0.00031120,0.00027282,0.00015489,0.00007460,0.00000111
 ,0.00016400,0.00002287,0.00010951,-0.00111047,0.00009002,0.00058107,0.
 00004979,0.00006711,0.00004109,0.00000623,-0.00000405,0.00000787,0.000
 00048,0.00000833,0.00000092,0.00001004,0.00000251,-0.00001537,-0.00000
 016,0.00000182,0.00000726,-0.00004360,0.00000620,0.00009846,-0.0000071
 2,-0.00003053,0.00000289,0.00001975,-0.00004032,0.00001041,0.00000501,
 0.00000391,0.00000872,-0.00000542,-0.00000392,-0.00001326,-0.00003558,
 -0.00001961,-0.00000186,0.00004654,-0.00001019,0.00001457,-0.00002122,
 0.00001515,-0.00002726,0.00008127,0.00003344,0.00009061,-0.00001854,-0
 .00001860,-0.00001332,-0.00005101,0.00001398,0.00008649,-0.00002066,0.
 00000408,-0.00001701,-0.00002945,0.00004865,0.00006220,-0.00000798,0.0
 0000495,-0.00000116,0.00000381,0.00000670,-0.00000615,-0.00002959,0.00
 001557,0.00000614,0.00004472,0.00002210,0.00002519,0.00000427,0.000044
 78,-0.00000594,-0.00001268,-0.00000387,-0.00001289,-0.00000675,-0.0000
 0748,-0.00000012,0.00000907,-0.00007023,0.00017170,0.00001014,-0.00000
 339,-0.00002746,-0.00004665,0.00002670,-0.00001351,-0.00000505,-0.0000
 5606,-0.00001013,-0.00002184,0.00000550,-0.00001261,0.00003320,-0.0000
 2788,-0.00001134,0.00071143,-0.00020795,0.00005350,-0.00008403,0.00004
 898,0.00008558,-0.02657741,-0.11356518,-0.13423749,0.01787844,0.139120
 90,0.00004714,-0.00017529,-0.00014147,-0.00160826,0.00200708,0.0016962
 9,0.00039323,-0.00138871,-0.00173254,0.00191664,-0.00093247,-0.0003165
 5,-0.00005681,-0.00000973,0.00001967,0.00201311,-0.00004439,-0.0011484
 8,-0.00121450,-0.00012514,0.00000439,-0.00089043,0.00094380,0.00116120
 ,0.00035910,0.00066135,0.00042374,-0.00008964,-0.00046417,-0.00017439,
 -0.00005571,0.00019557,0.00000860,-0.00011411,0.00002707,-0.00008629,-
 0.00008711,0.00018697,0.00004186,-0.00038498,-0.00010542,0.00018518,0.
 00019193,-0.00006718,-0.00011128,-0.00026059,-0.00032791,-0.00040028,0
 .00000762,0.00027747,-0.00013942,-0.00019055,-0.00004209,-0.00009412,0
 .00238565,-0.00036756,-0.00027816,-0.00089695,-0.00005539,0.00072043,-
 0.00196314,0.00030716,0.00044811,-0.00003343,-0.00003746,-0.00001026,-
 0.00002059,-0.00010364,-0.00008323,0.00007113,-0.00004590,-0.00007454,
 -0.00009138,0.00008473,-0.00004650,0.00006500,-0.00002245,-0.00020853,
 -0.00050170,0.00048030,-0.00053624,0.00286503,-0.00243345,0.00454895,-
 0.00198962,-0.00046302,-0.00262528,0.00183142,0.00600606,-0.00307267,0
 .00023757,0.00005995,0.00011817,-0.00042245,-0.00021007,-0.00034044,-0
 .00047013,-0.00020705,-0.00044874,0.00308843,0.00174660,0.00522973,-0.
 00309697,0.00240137,-0.00450792,0.00005775,-0.00590743,-0.00172194,-0.
 00200880,-0.00279525,-0.00672101,-0.00125841,-0.00075336,0.00182533,0.
 01272062,0.00679728,0.01833963,-0.00543270,-0.01655009,0.01490546,0.00
 303802,0.00307585,0.00729987,0.00653341,0.01660561,-0.01569799,-0.0032
 7657,-0.01259355,-0.00613689,0.00107341,0.00227527,0.00197468,-0.00023
 895,-0.00039407,-0.00039248,0.00044976,0.00027980,-0.00203302,-0.00048
 735,-0.00084948,-0.00106270,0.00017587,-0.00042730,-0.00002529,-0.0006
 3261,0.00375127,0.00104813,0.00040999,-0.00146218,-0.00218466,-0.00089
 673,-0.00347993,0.00148730,0.00011880,0.00000917,0.00000377,0.00008539
 ,-0.00004270,0.00005456,-0.00002881,-0.00000672,0.00001753,-0.00003726
 ,-0.00000140,0.00001812,-0.00000832,-0.00003336,0.00002579,0.00008638,
 -0.00009584,0.00004217,-0.00088917,0.00011660,-0.00058489,-0.00001367,
 0.00006079,0.00007410,-0.00000257,-0.00001244,-0.00002721,0.00004338,-
 0.00005115,0.00004355,-0.00004576,-0.00003009,0.00000564,-0.00012534,0
 .00011003,-0.00007035,0.00004367,0.00002984,0.00004716,0.00002128,0.00
 003936,0.00013092,-0.00015130,0.00010382,0.00030352,0.00004704,0.00004
 599,0.00007549,-0.00009501,-0.00008712,-0.00005133,-0.00000115,0.00004
 121,-0.00001264,0.00002708,-0.00001094,-0.00010718,0.00000457,-0.00001
 425,0.00001833,-0.00017087,0.00035739,-0.00010653,-0.00010369,0.000438
 81,0.00053199,0.00013328,0.00012315,0.00000983,0.00000145,-0.00008589,
 0.00004654,-0.00015572,0.00128205,0.00191220,-0.00017095,-0.00017078,0
 .00004728,0.00000367,-0.00000092,0.00001455,-0.00000892,0.00000721,0.0
 0000278,0.00001705,-0.00000123,-0.00002217,0.00000258,0.00000292,0.000
 01667,-0.00006489,0.00002143,0.00015398,-0.00000528,-0.00004786,-0.000
 00432,0.00002661,-0.00006656,0.00003324,0.00000445,0.00000667,0.000004
 81,-0.00000575,-0.00001092,-0.00002102,-0.00007893,-0.00003159,0.00000
 538,0.00009886,-0.00002197,0.00003165,-0.00004268,0.00003830,-0.000063
 08,0.00007546,0.00003074,0.00007944,-0.00000650,-0.00002105,-0.0000190
 0,-0.00004285,0.00001711,0.00008798,-0.00001931,0.00001223,-0.00001921
 ,0.00002591,0.00007007,0.00008200,-0.00000407,-0.00000008,-0.00001068,
 0.00000767,0.00001440,-0.00000161,-0.00002145,0.00000594,0.00001052,0.
 00029295,0.00017864,0.00009442,-0.00003844,0.00016785,-0.00005119,-0.0
 0002381,0.00000789,-0.00004398,-0.00002863,0.00000045,0.00001169,0.000
 00660,-0.00010532,0.00034989,0.00000573,-0.00000861,-0.00004890,-0.000
 07263,0.00004800,-0.00002749,-0.00000288,-0.00005999,-0.00001874,-0.00
 001004,0.00001076,-0.00003563,0.00004938,-0.00005048,-0.00002262,0.001
 01266,-0.00003852,-0.00010982,-0.00020597,0.00010522,0.00008725,-0.026
 98259,-0.12608950,-0.21664363,0.01616268,0.12836383,0.20471508\\0.0000
 0312,-0.00000965,-0.00002539,-0.00001164,0.00004145,0.00007050,-0.0000
 3732,-0.00004895,-0.00002681,0.00005959,-0.00007857,-0.00001333,-0.000
 04357,-0.00000331,-0.00000909,-0.00005543,-0.00000579,0.00014361,0.000
 06805,-0.00000136,-0.00001424,0.00008323,-0.00011511,0.00001613,-0.000
 00192,-0.00004262,-0.00002289,0.00000175,0.00002470,0.00000051,-0.0000
 0199,-0.00000257,0.00000273,-0.00000281,0.00001022,0.00001362,-0.00001
 439,-0.00001633,-0.00001111,0.00004709,0.00001476,-0.00001186,-0.00005
 643,-0.00002674,-0.00011587,0.00001610,0.00001686,0.00001538,-0.000017
 57,-0.00001270,0.00000904,-0.00004793,-0.00005983,0.00002780,0.0005029
 7,0.00055122,-0.00013700,0.00033488,-0.00059502,-0.00002981,-0.0002893
 2,-0.00012645,0.00006174,-0.00000894,0.00000865,-0.00000694,0.00000178
 ,0.00001808,-0.00001562,-0.00001850,-0.00000026,0.00000593,0.00001400,
 -0.00001786,0.00000331,-0.00002883,-0.00000165,-0.00000804,0.00001803,
 -0.00001253,0.00002035,-0.00007977,0.00011733,-0.00011250,0.00017459,0
 .00027036,0.00016005,-0.00002406,0.00000208,0.00012556,0.00010214,0.00
 001743,-0.00009745,0.00005121,-0.00009064,-0.00005672,-0.00000095,0.00
 050974,0.00018703,-0.00011702,-0.00000828,-0.00003298,-0.00066725,-0.0
 0009574,-0.00077396,-0.00426011,0.00186378,0.00097982,0.00024288,-0.00
 016379,-0.00018700,0.00014331,0.00006298,-0.00001598,-0.00104971,0.001
 24985,-0.00113319,0.00088968,0.00054879,0.00062783,0.00084903,0.000440
 77,-0.00027435,0.00415089,-0.00428487,-0.00074746,0.00013001,0.0001390
 7,-0.00039715,-0.00001623,0.00005762,0.00017713,0.00000427,0.00001295,
 0.00000104,-0.00002424,0.00001835,0.00006031,0.00001884,-0.00005115,0.
 00000876,0.00010002,0.00001248,0.00003383,0.00055401,0.00003174,-0.000
 65169,-0.00054161,-0.00044890,0.00090401,-0.00137370,0.00025268,0.0007
 1343,0.00000139,-0.00000238,0.00000738,-0.00000601,-0.00000047,0.00000
 442,0.00000764,-0.00000134,-0.00000587,0.00000670,0.00000055,-0.000000
 04,0.00000259,0.00000411,-0.00000385,0.00000246,0.00000239,-0.00000328
 ,0.00001034,-0.00000018,-0.00000030,-0.00000262,-0.00000403,-0.0000090
 4,-0.00000140,0.00000182,-0.00000244,-0.00001114,0.00000107,-0.0000039
 8,0.00002500,-0.00002017,0.00000120,0.00002555,-0.00002347,0.00000657,
 -0.00000266,0.00000260,-0.00000729,0.00000517,0.00000840,0.00001151,0.
 00003027,-0.00002461,0.00003648,-0.00000490,0.00000039,-0.00000231,0.0
 0001317,0.00001178,0.00000268,0.00000566,0.00000320,0.00000515,-0.0000
 0827,0.00000019,0.00000750,0.00000903,0.00001557,-0.00004500,-0.000021
 07,0.00002406,0.00002794,0.00000333,-0.00000899,-0.00000850,-0.0000079
 8,-0.00001274,0.00000832,0.00000994,0.00000461,0.00001323,-0.00001947,
 0.00001694,0.00000942,0.00000611,0.00000263,-0.00000323,-0.00000255,0.
 00000107,-0.00000329,-0.00000357,0.00000003,-0.00000295,-0.00000398,0.
 00000062,-0.00000098,-0.00000188,0.00000133,-0.00000125,-0.00000100,-0
 .00000173,-0.00000026,-0.00000062,0.00000739,-0.00000338,-0.00000570,0
 .00000370,0.00000708,-0.00000621,-0.00000158,0.00000328,-0.00000097,0.
 00000224,0.00000468,-0.00000144,0.00000108,0.00000325,-0.00000428,-0.0
 0000100,0.00000210,-0.00000188,-0.00000103,0.00000287,0.00001226,0.000
 00485,0.00001184,0.00000271,-0.00000282,0.00000275,-0.00000102,-0.0000
 0189,0.00000412,0.00000229,-0.00000136,0.00000207,0.00000677,0.0000033
 4,-0.00003093,0.00000368,-0.00000763,0.00000402,-0.00000462,0.00000264
 ,0.00000598,0.00000035,-0.00000592,0.00000131,-0.00000037,-0.00001296,
 0.00000434,0.00000167,-0.00000041,0.00000227,-0.00000300,0.00000130,0.
 00000132,-0.00000135,-0.00000259,-0.00000263,-0.00000376,0.00000540,-0
 .00001918,-0.00000014,0.00000017,-0.00000009,0.00000673,-0.00000185,-0
 .00000265,-0.00000081,0.00000451,-0.00000742,0.00000336,0.00000047,-0.
 00000178,-0.00000047,0.00000211,-0.00000393,-0.00004243,0.00002283,0.0
 0000489,0.00001081,-0.00000284,-0.00001217,0.00000500,-0.00042763,0.00
 001329,0.00018736,0.00043292,0.00052378\\\@


 I DO NOT KNOW WHAT I MAY APPEAR TO THE WORLD; BUT TO MYSELF
 I SEEM TO HAVE BEEN ONLY LIKE A BOY PLAYING ON THE SEASHORE,
 AND DIVERTING MYSELF IN NOW AND THEN FINDING A SMOOTHER PEBBLE
 OR A PRETTIER SHELL THAN ORDINARY, WHILST THE GREAT OCEAN OF
 TRUTH LAY ALL UNDISCOVERED BEFORE ME.
                                          -- NEWTON (1642-1726)
 Job cpu time:      19 days  6 hours 41 minutes 24.6 seconds.
 File lengths (MBytes):  RWF=  82924 Int=      0 D2E=      0 Chk=    391 Scr=      4
 Normal termination of Gaussian 09 at Fri Dec 11 22:01:18 2020.
real 83481.43
user 1663073.33
sys 2611.43
Machine:
halstead-a090
halstead-a090
halstead-a090
halstead-a090
halstead-a090
halstead-a090
halstead-a090
halstead-a090
halstead-a090
halstead-a090
halstead-a090
halstead-a090
halstead-a090
halstead-a090
halstead-a090
halstead-a090
halstead-a090
halstead-a090
halstead-a090
halstead-a090
